version 2
run ExperimentLarge-0-20150519-10:25:54-380
attr configname ExperimentLarge
attr datetime 20150519-10:25:54
attr experiment ExperimentLarge
attr inifile omnetpp.ini
attr iterationvars ""
attr iterationvars2 $repetition=0
attr measurement ""
attr network WSN
attr processid 380
attr repetition 0
attr replication #0
attr resultdir results
attr runnumber 0
attr seedset 0

vector 3  WSN.statistic  sensorEnergy:vector  ETV
attr title  "Sensor energy, vector"
vector 4  WSN.statistic  sensorEnergyLevel:vector  ETV
attr title  "Sensor energy (level), vector"
3	77251612	1140	6.8568210079084
3	77251612	1140	6.8556068437549
3	77251612	1140	6.7348050952783
3	77251612	1140	6.8405246113109
3	77251612	1140	6.8467376626582
3	77251612	1140	6.8503609796097
3	77251612	1140	6.8348790593948
3	77251612	1140	6.8427785371593
3	77251612	1140	6.8357021806132
3	77251612	1140	7.1199623737141
3	77251612	1140	6.903823847292
3	77251612	1140	6.9038694604398
3	77251612	1140	6.909416707975
3	77251612	1140	6.913844777439
3	77251612	1140	6.8991546404436
3	77251612	1140	6.9043439899907
3	77251612	1140	6.8996221894275
3	77251612	1140	6.9105618631904
3	77251612	1140	6.9005095857269
3	77251612	1140	6.9119393381249
3	77251612	1140	6.9047542305244
3	77251612	1140	6.9132883519536
3	77251612	1140	6.9151518331257
3	77251612	1140	6.8174389775761
3	77251612	1140	6.7324241700487
3	77251612	1140	6.9007949400928
3	77251612	1140	6.8953110897553
3	77251612	1140	6.9003367564761
3	77251612	1140	6.9079656502761
3	77251612	1140	6.8327142501904
3	77251612	1140	6.9063345317769
3	77251612	1140	6.9096788238255
3	77251612	1140	6.8563466390921
3	77251612	1140	6.9026077345257
3	77251612	1140	6.9079387499608
3	77251612	1140	6.9023892120444
3	77251612	1140	6.8937094498344
3	77251612	1140	6.8040210783261
3	77251612	1140	6.8888348015673
3	77251612	1140	6.8822138878095
3	77251612	1140	6.8884364011605
3	77251612	1140	6.8884819221082
3	77251612	1140	6.8838357949083
3	77251612	1140	6.8816119128086
3	77251612	1140	6.9063866419047
3	77251612	1140	6.8718309775197
3	77251612	1140	6.8662239583567
3	77251612	1140	6.8691870658371
3	77251612	1140	6.8789665398574
3	77251612	1140	6.8693286907575
3	77251612	1140	6.8032797060232
3	77251612	1140	6.8547791911466
3	77251612	1140	6.8855846746931
3	77251612	1140	6.877211331457
3	77251612	1140	6.8410324326597
3	77251612	1140	6.8688731290557
3	77251612	1140	6.8665958936565
3	77251612	1140	6.8535276962085
3	77251612	1140	6.8515782861081
3	77251612	1140	6.8595565492561
3	77251612	1140	6.8496984350572
3	77251612	1140	6.8655085662077
3	77251612	1140	6.8526228087076
3	77251612	1140	6.8629809274548
3	77251612	1140	6.849461676555
3	77251612	1140	6.8623715590945
3	77251612	1140	6.8560530069067
3	77251612	1140	6.8489636691567
3	77251612	1140	6.8613592039551
3	77251612	1140	6.8692901759045
3	77251612	1140	6.8711262216562
3	77251612	1140	6.8741808523537
4	77251612	1140	76
4	77251612	1140	76
4	77251612	1140	74
4	77251612	1140	76
4	77251612	1140	76
4	77251612	1140	76
4	77251612	1140	75
4	77251612	1140	76
4	77251612	1140	75
4	77251612	1140	79
4	77251612	1140	76
4	77251612	1140	76
4	77251612	1140	76
4	77251612	1140	76
4	77251612	1140	76
4	77251612	1140	76
4	77251612	1140	76
4	77251612	1140	76
4	77251612	1140	76
4	77251612	1140	76
4	77251612	1140	76
4	77251612	1140	76
4	77251612	1140	76
4	77251612	1140	75
4	77251612	1140	74
4	77251612	1140	76
4	77251612	1140	76
4	77251612	1140	76
4	77251612	1140	76
4	77251612	1140	75
4	77251612	1140	76
4	77251612	1140	76
4	77251612	1140	76
4	77251612	1140	76
4	77251612	1140	76
4	77251612	1140	76
4	77251612	1140	76
4	77251612	1140	75
4	77251612	1140	76
4	77251612	1140	76
4	77251612	1140	76
4	77251612	1140	76
4	77251612	1140	76
4	77251612	1140	76
4	77251612	1140	76
4	77251612	1140	76
4	77251612	1140	76
4	77251612	1140	76
4	77251612	1140	76
4	77251612	1140	76
4	77251612	1140	75
4	77251612	1140	76
4	77251612	1140	76
4	77251612	1140	76
4	77251612	1140	76
4	77251612	1140	76
4	77251612	1140	76
4	77251612	1140	76
4	77251612	1140	76
4	77251612	1140	76
4	77251612	1140	76
4	77251612	1140	76
4	77251612	1140	76
4	77251612	1140	76
4	77251612	1140	76
4	77251612	1140	76
4	77251612	1140	76
4	77251612	1140	76
4	77251612	1140	76
4	77251612	1140	76
4	77251612	1140	76
4	77251612	1140	76
