version 2
run ExperimentLarge-0-20150518-14:41:44-6124
attr configname ExperimentLarge
attr datetime 20150518-14:41:44
attr experiment ExperimentLarge
attr inifile omnetpp.ini
attr iterationvars ""
attr iterationvars2 $repetition=0
attr measurement ""
attr network WSN
attr processid 6124
attr repetition 0
attr replication #0
attr resultdir results
attr runnumber 0
attr seedset 0

vector 3  WSN.statistic  sensorEnergy:vector  ETV
attr title  "Sensor energy, vector"
vector 4  WSN.statistic  sensorEnergyLevel:vector  ETV
attr title  "Sensor energy (level), vector"
3	61417815	1140	6.844401683767
3	61417815	1140	6.833463617612
3	61417815	1140	6.7242552091334
3	61417815	1140	6.8258558075145
3	61417815	1140	6.833858144711
3	61417815	1140	6.8295191721612
3	61417815	1140	6.8257751505628
3	61417815	1140	6.8364707948616
3	61417815	1140	6.834423615113
3	61417815	1140	7.1199048385692
3	61417815	1140	6.8990757680458
3	61417815	1140	6.9006937591436
3	61417815	1140	6.8963915645452
3	61417815	1140	6.8898639527952
3	61417815	1140	6.8955070141004
3	61417815	1140	6.9061257807953
3	61417815	1140	6.9020416369073
3	61417815	1140	6.904036909943
3	61417815	1140	6.8981739154471
3	61417815	1140	6.8945655354683
3	61417815	1140	6.8969452748471
3	61417815	1140	6.8795102440482
3	61417815	1140	6.8989856109464
3	61417815	1140	6.8954076128971
3	61417815	1140	6.7641622126569
3	61417815	1140	6.8957428252459
3	61417815	1140	6.8913857972979
3	61417815	1140	6.8964460964968
3	61417815	1140	6.8876561653479
3	61417815	1140	6.772365825967
3	61417815	1140	6.8885514344482
3	61417815	1140	6.8894497401045
3	61417815	1140	6.8476320822962
3	61417815	1140	6.9020867375474
3	61417815	1140	6.8878523305504
3	61417815	1140	6.891760825797
3	61417815	1140	6.886530803748
3	61417815	1140	6.7909859794271
3	61417815	1140	6.8711066270764
3	61417815	1140	6.8775334665005
3	61417815	1140	6.8824082820476
3	61417815	1140	6.8765473610492
3	61417815	1140	6.859475557341
3	61417815	1140	6.8677728909478
3	61417815	1140	6.896583242341
3	61417815	1140	6.8705133280983
3	61417815	1140	6.8533757506999
3	61417815	1140	6.8508680972006
3	61417815	1140	6.8532031428997
3	61417815	1140	6.8717570909483
3	61417815	1140	6.8626453685472
3	61417815	1140	6.8606719921989
3	61417815	1140	6.8571569295516
3	61417815	1140	6.8681653824979
3	61417815	1140	6.8495675407997
3	61417815	1140	6.8525332584975
3	61417815	1140	6.8521082509514
3	61417815	1140	6.8571847393977
3	61417815	1140	6.7821288698651
3	61417815	1140	6.8319140050202
3	61417815	1140	6.8518155173006
3	61417815	1140	6.8514168668495
3	61417815	1140	6.863841811367
3	61417815	1140	6.8658971927161
3	61417815	1140	6.8561363475771
3	61417815	1140	6.8484468999696
3	61417815	1140	6.8531483298545
3	61417815	1140	6.8576265627659
3	61417815	1140	6.8490204927677
3	61417815	1140	6.8814525811366
3	61417815	1140	6.8595931044887
3	61417815	1140	6.8721858538856
4	61417815	1140	76
4	61417815	1140	75
4	61417815	1140	74
4	61417815	1140	75
4	61417815	1140	75
4	61417815	1140	75
4	61417815	1140	75
4	61417815	1140	75
4	61417815	1140	75
4	61417815	1140	79
4	61417815	1140	76
4	61417815	1140	76
4	61417815	1140	76
4	61417815	1140	76
4	61417815	1140	76
4	61417815	1140	76
4	61417815	1140	76
4	61417815	1140	76
4	61417815	1140	76
4	61417815	1140	76
4	61417815	1140	76
4	61417815	1140	76
4	61417815	1140	76
4	61417815	1140	76
4	61417815	1140	75
4	61417815	1140	76
4	61417815	1140	76
4	61417815	1140	76
4	61417815	1140	76
4	61417815	1140	75
4	61417815	1140	76
4	61417815	1140	76
4	61417815	1140	76
4	61417815	1140	76
4	61417815	1140	76
4	61417815	1140	76
4	61417815	1140	76
4	61417815	1140	75
4	61417815	1140	76
4	61417815	1140	76
4	61417815	1140	76
4	61417815	1140	76
4	61417815	1140	76
4	61417815	1140	76
4	61417815	1140	76
4	61417815	1140	76
4	61417815	1140	76
4	61417815	1140	76
4	61417815	1140	76
4	61417815	1140	76
4	61417815	1140	76
4	61417815	1140	76
4	61417815	1140	76
4	61417815	1140	76
4	61417815	1140	76
4	61417815	1140	76
4	61417815	1140	76
4	61417815	1140	76
4	61417815	1140	75
4	61417815	1140	75
4	61417815	1140	76
4	61417815	1140	76
4	61417815	1140	76
4	61417815	1140	76
4	61417815	1140	76
4	61417815	1140	76
4	61417815	1140	76
4	61417815	1140	76
4	61417815	1140	76
4	61417815	1140	76
4	61417815	1140	76
4	61417815	1140	76
