version 2
run General-0-20140630-03:58:10-4931
attr configname General
attr datetime 20140630-03:58:10
attr experiment General
attr inifile omnetpp.ini
attr iterationvars ""
attr iterationvars2 $repetition=0
attr measurement ""
attr network WSN
attr processid 4931
attr repetition 0
attr replication #0
attr resultdir results
attr runnumber 0
attr seedset 0

vector 3  WSN.statistic  sensorEnergy:vector  ETV
attr title  "Sensor energy, vector"
vector 4  WSN.statistic  sensorEnergyLevel:vector  ETV
attr title  "Sensor energy (level), vector"
3	15495843	3540	3.1671518871431
3	15495843	3540	3.1671472616979
3	15495843	3540	3.1632898204767
3	15495843	3540	3.1558725234107
3	15495843	3540	3.1497923393453
3	15495843	3540	3.1167126836036
3	15495843	3540	3.1470959229373
3	15495843	3540	3.1574545560928
3	15495843	3540	3.1586275081992
3	15495843	3540	3.1590326767038
3	15495843	3540	3.1600494001822
3	15495843	3540	3.1626310109621
3	15495843	3540	3.1673449019432
3	15495843	3540	3.1516094131438
3	15495843	3540	3.166800267248
3	15495843	3540	3.1538205801505
3	15495843	3540	3.1397161796914
3	15495843	3540	3.1322501208121
3	15495843	3540	3.1525906578556
3	15495843	3540	3.1520377073089
3	15495843	3540	3.1525745139089
3	15495843	3540	3.1527003285262
3	15495843	3540	3.1525123077256
3	15495843	3540	3.1613254820119
3	15495843	3540	3.152580767044
3	15495843	3540	3.1523330118441
3	15495843	3540	3.1518687606943
3	15495843	3540	3.1534130825644
3	15495843	3540	3.1432658583378
3	15495843	3540	3.1452103264487
3	15495843	3540	3.1405907463129
3	15495843	3540	3.1430266767743
3	15495843	3540	3.1435115904277
3	15495843	3540	3.1436186522789
3	15495843	3540	3.152597740876
3	15495843	3540	3.1645953543599
3	15495843	3540	3.1540143109318
3	15495843	3540	3.1516784073438
3	15495843	3540	3.1512034307916
3	15495843	3540	3.1437095922606
3	15495843	3540	3.1596401440614
3	15495843	3540	3.1462600449327
3	15495843	3540	3.1525180295535
3	15495843	3540	3.1501249988047
3	15495843	3540	3.1577443958148
3	15495843	3540	3.1446058641678
3	15495843	3540	3.151999862874
3	15495843	3540	3.1601615173268
3	15495843	3540	3.1629202264496
3	15495843	3540	3.1524592309409
3	15495843	3540	3.1524762979904
3	15495843	3540	3.1462543294954
3	15495843	3540	3.1632792678484
3	15495843	3540	3.1576805707451
3	15495843	3540	3.1521567082774
3	15495843	3540	3.1552973622745
3	15495843	3540	3.1578012749727
3	15495843	3540	3.1455064140997
3	15495843	3540	3.1527662235154
3	15495843	3540	3.160412351426
3	15495843	3540	3.162920226387
3	15495843	3540	3.1645971476019
3	15495843	3540	3.1530054832408
3	15495843	3540	3.1469263403942
3	15495843	3540	3.163210626452
3	15495843	3540	3.1580787323379
3	15495843	3540	3.152430412078
3	15495843	3540	3.1557934266768
3	15495843	3540	3.157839949488
3	15495843	3540	3.1490467962683
3	15495843	3540	3.1501192995668
3	15495843	3540	3.1637894450241
3	15495843	3540	3.1630469456506
3	15495843	3540	3.1638059365708
3	15495843	3540	3.1604949552154
3	15495843	3540	3.1633601956141
3	15495843	3540	3.1630786281737
3	15495843	3540	3.1580858426299
3	15495843	3540	3.1524486283766
3	15495843	3540	3.1561619565318
3	15495843	3540	3.1578551895994
3	15495843	3540	3.1488862310923
3	15495843	3540	3.1502709474236
3	15495843	3540	3.1638828063617
3	15495843	3540	3.1630680670551
3	15495843	3540	3.1648876829015
3	15495843	3540	3.1609995577217
3	15495843	3540	3.1649325918713
3	15495843	3540	3.1630152675329
3	15495843	3540	3.1586679750636
3	15495843	3540	3.1535094030024
3	15495843	3540	3.1565404276251
3	15495843	3540	3.1578551895995
3	15495843	3540	3.1494426794523
3	15495843	3540	3.151389548498
3	15495843	3540	3.1638942419614
3	15495843	3540	3.1631789462376
3	15495843	3540	3.1654382068704
3	15495843	3540	3.1631984274975
3	15495843	3540	3.1652941584088
3	15495843	3540	3.16307862734
3	15495843	3540	3.155694544715
3	15495843	3540	3.1569700194599
3	15495843	3540	3.1570075498505
3	15495843	3540	3.1579015105013
3	15495843	3540	3.1524409411484
3	15495843	3540	3.1506475726481
3	15495843	3540	3.1632929980612
3	15495843	3540	3.1599380056141
3	15495843	3540	3.1543348305657
3	15495843	3540	3.1644149482094
3	15495843	3540	3.1655897726065
3	15495843	3540	3.1630152680663
3	15495843	3540	3.1589821676085
3	15495843	3540	3.1545021557104
3	15495843	3540	3.1561662703603
3	15495843	3540	3.1579015105016
3	15495843	3540	3.1524078877526
3	15495843	3540	3.1671314927641
3	15495843	3540	3.1675735279536
3	15495843	3540	3.1599380056147
3	15495843	3540	3.1549071545157
3	15495843	3540	3.1546931522644
3	15495843	3540	3.1649808670563
3	15495843	3540	3.1631314280977
3	15495843	3540	3.1586306161848
3	15495843	3540	3.158058309285
3	15495843	3540	3.1662700442593
3	15495843	3540	3.1631314294343
3	15495843	3540	3.167988173098
3	15495843	3540	3.1674260713029
3	15495843	3540	3.1680561805979
3	15495843	3540	3.1599380056146
3	15495843	3540	3.1599380056139
3	15495843	3540	3.1655297420483
3	15495843	3540	3.165523943948
3	15495843	3540	3.1630627863464
3	15495843	3540	3.1632898266495
3	15495843	3540	3.1661669220099
3	15495843	3540	3.1663735559093
3	15495843	3540	3.1630469485981
3	15495843	3540	3.1630099875374
3	15495843	3540	3.1680071915474
3	15495843	3540	3.168383315486
4	15495843	3540	35
4	15495843	3540	35
4	15495843	3540	35
4	15495843	3540	35
4	15495843	3540	34
4	15495843	3540	34
4	15495843	3540	34
4	15495843	3540	35
4	15495843	3540	35
4	15495843	3540	35
4	15495843	3540	35
4	15495843	3540	35
4	15495843	3540	35
4	15495843	3540	35
4	15495843	3540	35
4	15495843	3540	35
4	15495843	3540	34
4	15495843	3540	34
4	15495843	3540	35
4	15495843	3540	35
4	15495843	3540	35
4	15495843	3540	35
4	15495843	3540	35
4	15495843	3540	35
4	15495843	3540	35
4	15495843	3540	35
4	15495843	3540	35
4	15495843	3540	35
4	15495843	3540	34
4	15495843	3540	34
4	15495843	3540	34
4	15495843	3540	34
4	15495843	3540	34
4	15495843	3540	34
4	15495843	3540	35
4	15495843	3540	35
4	15495843	3540	35
4	15495843	3540	35
4	15495843	3540	35
4	15495843	3540	34
4	15495843	3540	35
4	15495843	3540	34
4	15495843	3540	35
4	15495843	3540	35
4	15495843	3540	35
4	15495843	3540	34
4	15495843	3540	35
4	15495843	3540	35
4	15495843	3540	35
4	15495843	3540	35
4	15495843	3540	35
4	15495843	3540	34
4	15495843	3540	35
4	15495843	3540	35
4	15495843	3540	35
4	15495843	3540	35
4	15495843	3540	35
4	15495843	3540	34
4	15495843	3540	35
4	15495843	3540	35
4	15495843	3540	35
4	15495843	3540	35
4	15495843	3540	35
4	15495843	3540	34
4	15495843	3540	35
4	15495843	3540	35
4	15495843	3540	35
4	15495843	3540	35
4	15495843	3540	35
4	15495843	3540	34
4	15495843	3540	35
4	15495843	3540	35
4	15495843	3540	35
4	15495843	3540	35
4	15495843	3540	35
4	15495843	3540	35
4	15495843	3540	35
4	15495843	3540	35
4	15495843	3540	35
4	15495843	3540	35
4	15495843	3540	35
4	15495843	3540	34
4	15495843	3540	35
4	15495843	3540	35
4	15495843	3540	35
4	15495843	3540	35
4	15495843	3540	35
4	15495843	3540	35
4	15495843	3540	35
4	15495843	3540	35
4	15495843	3540	35
4	15495843	3540	35
4	15495843	3540	35
4	15495843	3540	34
4	15495843	3540	35
4	15495843	3540	35
4	15495843	3540	35
4	15495843	3540	35
4	15495843	3540	35
4	15495843	3540	35
4	15495843	3540	35
4	15495843	3540	35
4	15495843	3540	35
4	15495843	3540	35
4	15495843	3540	35
4	15495843	3540	35
4	15495843	3540	35
4	15495843	3540	35
4	15495843	3540	35
4	15495843	3540	35
4	15495843	3540	35
4	15495843	3540	35
4	15495843	3540	35
4	15495843	3540	35
4	15495843	3540	35
4	15495843	3540	35
4	15495843	3540	35
4	15495843	3540	35
4	15495843	3540	35
4	15495843	3540	35
4	15495843	3540	35
4	15495843	3540	35
4	15495843	3540	35
4	15495843	3540	35
4	15495843	3540	35
4	15495843	3540	35
4	15495843	3540	35
4	15495843	3540	35
4	15495843	3540	35
4	15495843	3540	35
4	15495843	3540	35
4	15495843	3540	35
4	15495843	3540	35
4	15495843	3540	35
4	15495843	3540	35
4	15495843	3540	35
4	15495843	3540	35
4	15495843	3540	35
4	15495843	3540	35
4	15495843	3540	35
4	15495843	3540	35
4	15495843	3540	35
4	15495843	3540	35
4	15495843	3540	35
