version 2
run General-0-20140524-17:02:45-11176
attr configname General
attr datetime 20140524-17:02:45
attr experiment General
attr inifile omnetpp.ini
attr iterationvars ""
attr iterationvars2 $repetition=0
attr measurement ""
attr network WSN
attr processid 11176
attr repetition 0
attr replication #0
attr resultdir results
attr runnumber 0
attr seedset 0

vector 2  WSN.statistic  networkEnergy:vector  ETV
attr title  "Node energy, vector"
vector 3  WSN.statistic  sensorEnergy:vector  ETV
attr title  "Sensor energy, vector"
vector 4  WSN.statistic  sensorEnergyLevel:vector  ETV
attr title  "Sensor energy (level), vector"
2	146	0	1296
2	1198432	60	1281.6194197878
2	2375403	120	1267.240851712
2	3099148	180	1252.9127639445
2	3722024	240	1238.5963414507
2	4219196	300	1224.2939438909
2	4625937	360	1210.0013758066
2	5041012	420	1195.7079708258
2	5440348	480	1181.4158825041
2	5765349	540	1167.13229836
2	6058193	600	1152.8523067857
2	6335913	660	1138.5741498102
2	6613485	720	1124.2956118896
2	6885398	780	1110.0181407973
2	7155471	840	1095.7410402095
2	7418765	900	1081.4644157249
2	7669885	960	1067.1892267881
2	7906759	1020	1052.9156190613
2	8134165	1080	1038.6429576287
2	8356544	1140	1024.3711495947
2	8570356	1200	1010.1000338823
2	8768572	1260	995.83054673722
2	8980888	1320	981.55970295277
2	9187844	1380	967.28945389378
2	9396499	1440	953.01906017465
2	9603015	1500	938.74896204947
2	9812675	1560	924.47830748813
2	10015262	1620	910.20851678318
2	10215018	1680	895.93896873387
2	10423098	1740	881.66845755258
2	10614220	1800	867.40006098379
2	10820611	1860	853.12988704435
2	11014397	1920	838.86118193587
2	11198707	1980	824.59297400003
2	11400828	2040	810.32348499571
2	11577575	2100	796.05619561103
2	11761811	2160	781.78844424285
2	11942369	2220	767.52116491437
2	12124060	2280	753.25377069604
2	12307945	2340	738.98602205145
2	12468315	2400	724.72090921065
2	12643885	2460	710.45424203124
2	12818239	2520	696.18735287043
2	12989485	2580	681.92122275484
2	13158882	2640	667.65521958694
2	13316509	2700	653.39008541739
2	13497838	2760	639.12280760321
2	13652403	2820	624.85829053587
2	13826742	2880	610.59162516027
2	13992909	2940	596.32594512326
2	14174065	3000	582.05861910555
2	14348821	3060	567.79209461309
2	14515022	3120	553.52615030619
2	14688087	3180	539.25983784745
2	14855161	3240	524.99389266715
2	15024044	3300	510.72789177021
2	15188762	3360	496.46231742797
2	15369890	3420	482.19503087366
2	15536722	3480	467.92930144908
3	15860986	3600	3.1336902791313
3	15860986	3600	3.1333798470313
3	15860986	3600	3.1009958911257
3	15860986	3600	3.1005485392762
3	15860986	3600	3.0850296283235
3	15860986	3600	3.050761595725
3	15860986	3600	3.0573664425237
3	15860986	3600	3.0578850397228
3	15860986	3600	3.0590306737726
3	15860986	3600	3.0842735295776
3	15860986	3600	3.0848192932953
3	15860986	3600	3.0876477282517
3	15860986	3600	3.1170599132149
3	15860986	3600	3.1149156126509
3	15860986	3600	3.1167615170826
3	15860986	3600	3.0873631214361
3	15860986	3600	3.0752160786753
3	15860986	3600	3.0614679476106
3	15860986	3600	3.0627619749698
3	15860986	3600	3.0628515281703
3	15860986	3600	3.0854171416052
3	15860986	3600	3.0865775109733
3	15860986	3600	3.0869764842725
3	15860986	3600	3.0864083918015
3	15860986	3600	3.114942604452
3	15860986	3600	3.1123092674384
3	15860986	3600	3.089110896181
3	15860986	3600	3.0867626369241
3	15860986	3600	3.0763966159912
3	15860986	3600	3.0796375848847
3	15860986	3600	3.0701560515876
3	15860986	3600	3.0748983823485
3	15860986	3600	3.0773222403346
3	15860986	3600	3.0722026875295
3	15860986	3600	3.0791739511255
3	15860986	3600	3.0778075905262
3	15860986	3600	3.0731780649324
3	15860986	3600	3.0522707936564
3	15860986	3600	3.0507434838068
3	15860986	3600	3.0430496519171
3	15860986	3600	3.063991518997
3	15860986	3600	3.058687309325
3	15860986	3600	3.0889277538854
3	15860986	3600	3.0871244017875
3	15860986	3600	3.0640654392793
3	15860986	3600	3.073661490854
3	15860986	3600	3.0783521972254
3	15860986	3600	3.0782860052765
3	15860986	3600	3.06415519758
3	15860986	3600	3.0519861527056
3	15860986	3600	3.0522535269556
3	15860986	3600	3.0460689419612
3	15860986	3600	3.0640918383072
3	15860986	3600	3.0646359751848
3	15860986	3600	3.0606680496867
3	15860986	3600	3.0885003824256
3	15860986	3600	3.0640601571566
3	15860986	3600	3.0740528467433
3	15860986	3600	3.0864313211913
3	15860986	3600	3.0782288129763
3	15860986	3600	3.0638700777811
3	15860986	3600	3.0731711002821
3	15860986	3600	3.0527441060553
3	15860986	3600	3.0467062341101
3	15860986	3600	3.0640654383858
3	15860986	3600	3.0645628488349
3	15860986	3600	3.0610268627638
3	15860986	3600	3.0891630257743
3	15860986	3600	3.0638383998598
3	15860986	3600	3.0831739566443
3	15860986	3600	3.0834992117934
3	15860986	3600	3.1080253211705
3	15860986	3600	3.0640548775333
3	15860986	3600	3.0873466237755
3	15860986	3600	3.0654902426762
3	15860986	3600	3.086701213508
3	15860986	3600	3.0641182387791
3	15860986	3600	3.0720114326727
3	15860986	3600	3.067531875175
3	15860986	3600	3.0676716103657
3	15860986	3600	3.0640548796785
3	15860986	3600	3.0856964890728
3	15860986	3600	3.0864968963468
3	15860986	3600	3.1079400458791
3	15860986	3600	3.0638911974496
3	15860986	3600	3.0697368575749
3	15860986	3600	3.0663085831371
3	15860986	3600	3.0558725408289
3	15860986	3600	3.0640971192146
3	15860986	3600	3.0766768646847
3	15860986	3600	3.0643922634169
3	15860986	3600	3.0678374524162
3	15860986	3600	3.0639387189126
3	15860986	3600	3.0863821063975
3	15860986	3600	3.0628122204164
3	15860986	3600	3.0646302839155
3	15860986	3600	3.0641499182952
3	15860986	3600	3.0694601195742
3	15860986	3600	3.0546832211954
3	15860986	3600	3.0566165357285
3	15860986	3600	3.0621831181769
3	15860986	3600	3.0736672613866
3	15860986	3600	3.0734006693544
3	15860986	3600	3.0679842045149
3	15860986	3600	3.0640179183517
3	15860986	3600	3.0951402711371
3	15860986	3600	3.0621885842163
3	15860986	3600	3.0633541920663
3	15860986	3600	3.063943997437
3	15860986	3600	3.0886348769089
3	15860986	3600	3.0552449083282
3	15860986	3600	3.0566898188284
3	15860986	3600	3.0621831181768
3	15860986	3600	3.090641846468
3	15860986	3600	3.070732552255
3	15860986	3600	3.0725491082051
3	15860986	3600	3.064033759025
3	15860986	3600	3.0941103261537
3	15860986	3600	3.0948074082532
3	15860986	3600	3.0637042357158
3	15860986	3600	3.0640284769207
3	15860986	3600	3.0905722523146
3	15860986	3600	3.0909801498705
3	15860986	3600	3.0927297361655
3	15860986	3600	3.0640179178915
3	15860986	3600	3.0944371790984
3	15860986	3600	3.0794256929035
3	15860986	3600	3.0908713820407
3	15860986	3600	3.0640707194427
3	15860986	3600	3.0525474917287
3	15860986	3600	3.0729147609768
3	15860986	3600	3.0724972444273
3	15860986	3600	3.0639545567786
3	15860986	3600	3.0640601582215
3	15860986	3600	3.093149058347
3	15860986	3600	3.0930616165971
3	15860986	3600	3.0639598394641
3	15860986	3600	3.0799428474543
3	15860986	3600	3.0802501715038
3	15860986	3600	3.0801476570039
3	15860986	3600	3.058350790877
3	15860986	3600	3.0529440389791
3	15860986	3600	3.0530275509774
3	15860986	3600	3.0729466367784
4	15860986	3600	34
4	15860986	3600	34
4	15860986	3600	34
4	15860986	3600	34
4	15860986	3600	34
4	15860986	3600	33
4	15860986	3600	33
4	15860986	3600	33
4	15860986	3600	33
4	15860986	3600	34
4	15860986	3600	34
4	15860986	3600	34
4	15860986	3600	34
4	15860986	3600	34
4	15860986	3600	34
4	15860986	3600	34
4	15860986	3600	34
4	15860986	3600	34
4	15860986	3600	34
4	15860986	3600	34
4	15860986	3600	34
4	15860986	3600	34
4	15860986	3600	34
4	15860986	3600	34
4	15860986	3600	34
4	15860986	3600	34
4	15860986	3600	34
4	15860986	3600	34
4	15860986	3600	34
4	15860986	3600	34
4	15860986	3600	34
4	15860986	3600	34
4	15860986	3600	34
4	15860986	3600	34
4	15860986	3600	34
4	15860986	3600	34
4	15860986	3600	34
4	15860986	3600	33
4	15860986	3600	33
4	15860986	3600	33
4	15860986	3600	34
4	15860986	3600	33
4	15860986	3600	34
4	15860986	3600	34
4	15860986	3600	34
4	15860986	3600	34
4	15860986	3600	34
4	15860986	3600	34
4	15860986	3600	34
4	15860986	3600	33
4	15860986	3600	33
4	15860986	3600	33
4	15860986	3600	34
4	15860986	3600	34
4	15860986	3600	34
4	15860986	3600	34
4	15860986	3600	34
4	15860986	3600	34
4	15860986	3600	34
4	15860986	3600	34
4	15860986	3600	34
4	15860986	3600	34
4	15860986	3600	33
4	15860986	3600	33
4	15860986	3600	34
4	15860986	3600	34
4	15860986	3600	34
4	15860986	3600	34
4	15860986	3600	34
4	15860986	3600	34
4	15860986	3600	34
4	15860986	3600	34
4	15860986	3600	34
4	15860986	3600	34
4	15860986	3600	34
4	15860986	3600	34
4	15860986	3600	34
4	15860986	3600	34
4	15860986	3600	34
4	15860986	3600	34
4	15860986	3600	34
4	15860986	3600	34
4	15860986	3600	34
4	15860986	3600	34
4	15860986	3600	34
4	15860986	3600	34
4	15860986	3600	34
4	15860986	3600	33
4	15860986	3600	34
4	15860986	3600	34
4	15860986	3600	34
4	15860986	3600	34
4	15860986	3600	34
4	15860986	3600	34
4	15860986	3600	34
4	15860986	3600	34
4	15860986	3600	34
4	15860986	3600	34
4	15860986	3600	33
4	15860986	3600	33
4	15860986	3600	34
4	15860986	3600	34
4	15860986	3600	34
4	15860986	3600	34
4	15860986	3600	34
4	15860986	3600	34
4	15860986	3600	34
4	15860986	3600	34
4	15860986	3600	34
4	15860986	3600	34
4	15860986	3600	33
4	15860986	3600	33
4	15860986	3600	34
4	15860986	3600	34
4	15860986	3600	34
4	15860986	3600	34
4	15860986	3600	34
4	15860986	3600	34
4	15860986	3600	34
4	15860986	3600	34
4	15860986	3600	34
4	15860986	3600	34
4	15860986	3600	34
4	15860986	3600	34
4	15860986	3600	34
4	15860986	3600	34
4	15860986	3600	34
4	15860986	3600	34
4	15860986	3600	34
4	15860986	3600	33
4	15860986	3600	34
4	15860986	3600	34
4	15860986	3600	34
4	15860986	3600	34
4	15860986	3600	34
4	15860986	3600	34
4	15860986	3600	34
4	15860986	3600	34
4	15860986	3600	34
4	15860986	3600	34
4	15860986	3600	33
4	15860986	3600	33
4	15860986	3600	33
4	15860986	3600	34
