version 2
run ExperimentLarge-0-20150508-11:27:39-3644
attr configname ExperimentLarge
attr datetime 20150508-11:27:39
attr experiment ExperimentLarge
attr inifile omnetpp.ini
attr iterationvars ""
attr iterationvars2 $repetition=0
attr measurement ""
attr network WSN
attr processid 3644
attr repetition 0
attr replication #0
attr resultdir results
attr runnumber 0
attr seedset 0

vector 3  WSN.statistic  sensorEnergy:vector  ETV
attr title  "Sensor energy, vector"
vector 4  WSN.statistic  sensorEnergyLevel:vector  ETV
attr title  "Sensor energy (level), vector"
3	66131984	1140	6.8363677627807
3	66131984	1140	6.8275894293817
3	66131984	1140	6.7433996843729
3	66131984	1140	6.8161180745358
3	66131984	1140	6.8190422429506
3	66131984	1140	6.8194030325839
3	66131984	1140	6.813486774437
3	66131984	1140	6.8315752431855
3	66131984	1140	6.8134952752351
3	66131984	1140	6.80811616712
3	66131984	1140	6.9033491178651
3	66131984	1140	6.8953861447034
3	66131984	1140	6.9000869873198
3	66131984	1140	6.8909460662171
3	66131984	1140	6.885838379663
3	66131984	1140	6.9056135514657
3	66131984	1140	6.8987439216638
3	66131984	1140	6.9012294265931
3	66131984	1140	6.9078956872829
3	66131984	1140	6.8906849900177
3	66131984	1140	6.8836297715179
3	66131984	1140	6.9035153311671
3	66131984	1140	6.8993155697314
3	66131984	1140	6.7327668248494
3	66131984	1140	6.8877874387665
3	66131984	1140	6.8860446207673
3	66131984	1140	6.8966090669983
3	66131984	1140	6.8990410685333
3	66131984	1140	6.8163532976786
3	66131984	1140	6.8991904009935
3	66131984	1140	6.9006109120455
3	66131984	1140	6.8867760602725
3	66131984	1140	6.8509319993427
3	66131984	1140	6.886384099469
3	66131984	1140	6.8991213580707
3	66131984	1140	6.8921428194702
3	66131984	1140	6.8151513184842
3	66131984	1140	6.8804957807726
3	66131984	1140	6.8706595536534
3	66131984	1140	6.8863025427188
3	66131984	1140	6.8893457779708
3	66131984	1140	6.8853590375186
3	66131984	1140	6.8633834646709
3	66131984	1140	6.8692837710553
3	66131984	1140	6.8764589863455
3	66131984	1140	6.8538631857736
3	66131984	1140	6.8552005696207
3	66131984	1140	6.8569540970761
3	66131984	1140	6.8674286206203
3	66131984	1140	6.7762400556167
3	66131984	1140	6.8542069617328
3	66131984	1140	6.8546214904017
3	66131984	1140	6.8543817538187
3	66131984	1140	6.8422703226207
3	66131984	1140	6.851818251733
3	66131984	1140	6.8375248658553
3	66131984	1140	6.845959936083
3	66131984	1140	6.8657201414151
3	66131984	1140	6.8549045393347
3	66131984	1140	6.8476982369354
3	66131984	1140	6.8412729883703
3	66131984	1140	6.8412008646697
3	66131984	1140	6.8432774018353
3	66131984	1140	6.8601890364103
3	66131984	1140	6.8466635807769
3	66131984	1140	6.8432932603167
3	66131984	1140	6.8470924939296
3	66131984	1140	6.8630989974233
3	66131984	1140	6.8454185901169
3	66131984	1140	6.8560295008778
3	66131984	1140	6.8521020803114
3	66131984	1140	6.8576956362273
4	66131984	1140	75
4	66131984	1140	75
4	66131984	1140	74
4	66131984	1140	75
4	66131984	1140	75
4	66131984	1140	75
4	66131984	1140	75
4	66131984	1140	75
4	66131984	1140	75
4	66131984	1140	75
4	66131984	1140	76
4	66131984	1140	76
4	66131984	1140	76
4	66131984	1140	76
4	66131984	1140	76
4	66131984	1140	76
4	66131984	1140	76
4	66131984	1140	76
4	66131984	1140	76
4	66131984	1140	76
4	66131984	1140	76
4	66131984	1140	76
4	66131984	1140	76
4	66131984	1140	74
4	66131984	1140	76
4	66131984	1140	76
4	66131984	1140	76
4	66131984	1140	76
4	66131984	1140	75
4	66131984	1140	76
4	66131984	1140	76
4	66131984	1140	76
4	66131984	1140	76
4	66131984	1140	76
4	66131984	1140	76
4	66131984	1140	76
4	66131984	1140	75
4	66131984	1140	76
4	66131984	1140	76
4	66131984	1140	76
4	66131984	1140	76
4	66131984	1140	76
4	66131984	1140	76
4	66131984	1140	76
4	66131984	1140	76
4	66131984	1140	76
4	66131984	1140	76
4	66131984	1140	76
4	66131984	1140	76
4	66131984	1140	75
4	66131984	1140	76
4	66131984	1140	76
4	66131984	1140	76
4	66131984	1140	76
4	66131984	1140	76
4	66131984	1140	75
4	66131984	1140	76
4	66131984	1140	76
4	66131984	1140	76
4	66131984	1140	76
4	66131984	1140	76
4	66131984	1140	76
4	66131984	1140	76
4	66131984	1140	76
4	66131984	1140	76
4	66131984	1140	76
4	66131984	1140	76
4	66131984	1140	76
4	66131984	1140	76
4	66131984	1140	76
4	66131984	1140	76
4	66131984	1140	76
