version 2
run ExperimentLarge-0-20150519-11:27:15-6796
attr configname ExperimentLarge
attr datetime 20150519-11:27:15
attr experiment ExperimentLarge
attr inifile omnetpp.ini
attr iterationvars ""
attr iterationvars2 $repetition=0
attr measurement ""
attr network WSN
attr processid 6796
attr repetition 0
attr replication #0
attr resultdir results
attr runnumber 0
attr seedset 0

vector 3  WSN.statistic  sensorEnergy:vector  ETV
attr title  "Sensor energy, vector"
vector 4  WSN.statistic  sensorEnergyLevel:vector  ETV
attr title  "Sensor energy (level), vector"
3	80480244	1140	6.8492158644713
3	80480244	1140	6.8478927503727
3	80480244	1140	6.7371592190194
3	80480244	1140	6.828215153978
3	80480244	1140	6.8364017520006
3	80480244	1140	6.8366152093725
3	80480244	1140	6.8368132317515
3	80480244	1140	6.8489139711216
3	80480244	1140	6.8348204895252
3	80480244	1140	6.8331393270758
3	80480244	1140	6.9012740943038
3	80480244	1140	6.9075624028475
3	80480244	1140	6.9199571969195
3	80480244	1140	6.9113365582536
3	80480244	1140	6.9170003361554
3	80480244	1140	6.9040147014066
3	80480244	1140	6.9135905858544
3	80480244	1140	6.9088603152551
3	80480244	1140	6.899821145558
3	80480244	1140	6.9045847593578
3	80480244	1140	6.9129217848968
3	80480244	1140	6.8983406594133
3	80480244	1140	6.8993050899073
3	80480244	1140	6.6968310266344
3	80480244	1140	6.903286946908
3	80480244	1140	6.9094678947565
3	80480244	1140	6.896863536508
3	80480244	1140	6.9077603048083
3	80480244	1140	6.8348667355973
3	80480244	1140	6.8833178006096
3	80480244	1140	6.9038361384107
3	80480244	1140	6.9093629041552
3	80480244	1140	6.8652238081986
3	80480244	1140	6.9008283616567
3	80480244	1140	6.8923611633606
3	80480244	1140	6.8893683554255
3	80480244	1140	6.8068870432294
3	80480244	1140	6.8867921911608
3	80480244	1140	6.8817941624128
3	80480244	1140	6.8834182656589
3	80480244	1140	6.8905210776317
3	80480244	1140	6.9005582522577
3	80480244	1140	6.8679185616747
3	80480244	1140	6.8743376006621
3	80480244	1140	6.9049985485593
3	80480244	1140	6.8860118088087
3	80480244	1140	6.8638525926103
3	80480244	1140	6.8662662533103
3	80480244	1140	6.8888286618581
3	80480244	1140	6.7925231867402
3	80480244	1140	6.8603965268097
3	80480244	1140	6.8735997091107
3	80480244	1140	6.8815663551595
3	80480244	1140	6.8760501064458
3	80480244	1140	6.8555160050867
3	80480244	1140	6.8658641005396
3	80480244	1140	6.8521776227897
3	80480244	1140	6.8624370160735
3	80480244	1140	6.8747371597874
3	80480244	1140	6.8539953714032
3	80480244	1140	6.8652874480107
3	80480244	1140	6.8548200923967
3	80480244	1140	6.8485918719386
3	80480244	1140	6.8714311658862
3	80480244	1140	6.8587843441434
3	80480244	1140	6.857747104839
3	80480244	1140	6.8716016169839
3	80480244	1140	6.8714941656356
3	80480244	1140	6.8561807026408
3	80480244	1140	6.8610321838868
3	80480244	1140	6.8557507137376
3	80480244	1140	6.868272917939
4	80480244	1140	76
4	80480244	1140	76
4	80480244	1140	74
4	80480244	1140	75
4	80480244	1140	75
4	80480244	1140	75
4	80480244	1140	75
4	80480244	1140	76
4	80480244	1140	75
4	80480244	1140	75
4	80480244	1140	76
4	80480244	1140	76
4	80480244	1140	76
4	80480244	1140	76
4	80480244	1140	76
4	80480244	1140	76
4	80480244	1140	76
4	80480244	1140	76
4	80480244	1140	76
4	80480244	1140	76
4	80480244	1140	76
4	80480244	1140	76
4	80480244	1140	76
4	80480244	1140	74
4	80480244	1140	76
4	80480244	1140	76
4	80480244	1140	76
4	80480244	1140	76
4	80480244	1140	75
4	80480244	1140	76
4	80480244	1140	76
4	80480244	1140	76
4	80480244	1140	76
4	80480244	1140	76
4	80480244	1140	76
4	80480244	1140	76
4	80480244	1140	75
4	80480244	1140	76
4	80480244	1140	76
4	80480244	1140	76
4	80480244	1140	76
4	80480244	1140	76
4	80480244	1140	76
4	80480244	1140	76
4	80480244	1140	76
4	80480244	1140	76
4	80480244	1140	76
4	80480244	1140	76
4	80480244	1140	76
4	80480244	1140	75
4	80480244	1140	76
4	80480244	1140	76
4	80480244	1140	76
4	80480244	1140	76
4	80480244	1140	76
4	80480244	1140	76
4	80480244	1140	76
4	80480244	1140	76
4	80480244	1140	76
4	80480244	1140	76
4	80480244	1140	76
4	80480244	1140	76
4	80480244	1140	76
4	80480244	1140	76
4	80480244	1140	76
4	80480244	1140	76
4	80480244	1140	76
4	80480244	1140	76
4	80480244	1140	76
4	80480244	1140	76
4	80480244	1140	76
4	80480244	1140	76
