version 2
run General-0-20140630-03:47:09-4561
attr configname General
attr datetime 20140630-03:47:09
attr experiment General
attr inifile omnetpp.ini
attr iterationvars ""
attr iterationvars2 $repetition=0
attr measurement ""
attr network WSN
attr processid 4561
attr repetition 0
attr replication #0
attr resultdir results
attr runnumber 0
attr seedset 0

vector 3  WSN.statistic  sensorEnergy:vector  ETV
attr title  "Sensor energy, vector"
vector 4  WSN.statistic  sensorEnergyLevel:vector  ETV
attr title  "Sensor energy (level), vector"
3	15883991	3540	3.1529691104227
3	15883991	3540	3.1527532644737
3	15883991	3540	3.150588276769
3	15883991	3540	3.1504519048437
3	15883991	3540	3.149121563071
3	15883991	3540	3.1148799162038
3	15883991	3540	3.1459096195222
3	15883991	3540	3.1509471743109
3	15883991	3540	3.1519045408559
3	15883991	3540	3.1549148969695
3	15883991	3540	3.1559010417051
3	15883991	3540	3.1632595736561
3	15883991	3540	3.1527669238218
3	15883991	3540	3.1515075931239
3	15883991	3540	3.1530395603741
3	15883991	3540	3.1516109635764
3	15883991	3540	3.139859321627
3	15883991	3540	3.1310316482125
3	15883991	3540	3.1521412235122
3	15883991	3540	3.1564830846025
3	15883991	3540	3.1534358776691
3	15883991	3540	3.1546004611666
3	15883991	3540	3.1558311807045
3	15883991	3540	3.1629620737051
3	15883991	3540	3.1707414458783
3	15883991	3540	3.1525045787723
3	15883991	3540	3.1524603448519
3	15883991	3540	3.1520535912533
3	15883991	3540	3.1409730583751
3	15883991	3540	3.1444562326437
3	15883991	3540	3.1391306501202
3	15883991	3540	3.1563484035154
3	15883991	3540	3.1566588356158
3	15883991	3540	3.1556834611546
3	15883991	3540	3.156260092933
3	15883991	3540	3.1565351010868
3	15883991	3540	3.1525924948968
3	15883991	3540	3.1520960287013
3	15883991	3540	3.1505467946
3	15883991	3540	3.1416902863803
3	15883991	3540	3.1460880404561
3	15883991	3540	3.1518675245388
3	15883991	3540	3.1519507631887
3	15883991	3540	3.1442521227263
3	15883991	3540	3.1476954961102
3	15883991	3540	3.1472615946394
3	15883991	3540	3.1558936745869
3	15883991	3540	3.1563130930372
3	15883991	3540	3.1522893051976
3	15883991	3540	3.1519832198508
3	15883991	3540	3.1520801912982
3	15883991	3540	3.1448019903084
3	15883991	3540	3.157479138285
3	15883991	3540	3.1466450962461
3	15883991	3540	3.1526243604373
3	15883991	3540	3.1543199780791
3	15883991	3540	3.161913620294
3	15883991	3540	3.1488563290652
3	15883991	3540	3.1569551519855
3	15883991	3540	3.1576188644314
3	15883991	3540	3.157682938161
3	15883991	3540	3.1516750057979
3	15883991	3540	3.1511672310363
3	15883991	3540	3.1464412685901
3	15883991	3540	3.157520778675
3	15883991	3540	3.1472186804921
3	15883991	3540	3.1524118525371
3	15883991	3540	3.1546264546971
3	15883991	3540	3.1619136202947
3	15883991	3540	3.1558991503367
3	15883991	3540	3.1505775593401
3	15883991	3540	3.1569012693889
3	15883991	3540	3.1630522295346
3	15883991	3540	3.1986660546039
3	15883991	3540	3.1500689683776
3	15883991	3540	3.1492587672295
3	15883991	3540	3.1575624190327
3	15883991	3540	3.1515918809142
3	15883991	3540	3.1488066809149
3	15883991	3540	3.1507872297401
3	15883991	3540	3.1619599411672
3	15883991	3540	3.1565151757943
3	15883991	3540	3.1522046758414
3	15883991	3540	3.1569559589934
3	15883991	3540	3.1630416680785
3	15883991	3540	3.1954641705712
3	15883991	3540	3.1503010578604
3	15883991	3540	3.1497706383361
3	15883991	3540	3.1575776585087
3	15883991	3540	3.152000007263
3	15883991	3540	3.1486558103402
3	15883991	3540	3.1513430652635
3	15883991	3540	3.1620068606216
3	15883991	3540	3.156778635143
3	15883991	3540	3.1540831659947
3	15883991	3540	3.1556644412941
3	15883991	3540	3.163200066998
3	15883991	3540	3.1573796551996
3	15883991	3540	3.1523771427867
3	15883991	3540	3.1503441531119
3	15883991	3540	3.1576087394859
3	15883991	3540	3.1519250285124
3	15883991	3540	3.1501653139645
3	15883991	3540	3.1557426895233
3	15883991	3540	3.1620379411635
3	15883991	3540	3.1571068071351
3	15883991	3540	3.1541053882058
3	15883991	3540	3.1562191394061
3	15883991	3540	3.1630258275287
3	15883991	3540	3.1513940166839
3	15883991	3540	3.1512095813373
3	15883991	3540	3.1520274406877
3	15883991	3540	3.1576087394865
3	15883991	3540	3.1553257679054
3	15883991	3540	3.1536583395054
3	15883991	3540	3.1565410503154
3	15883991	3540	3.1620584615467
3	15883991	3540	3.156198874835
3	15883991	3540	3.1558891907349
3	15883991	3540	3.1589294700291
3	15883991	3540	3.1631367063117
3	15883991	3540	3.1964207228409
3	15883991	3540	3.151789001933
3	15883991	3540	3.152173395282
3	15883991	3540	3.1609264559515
3	15883991	3540	3.1547315590034
3	15883991	3540	3.1560559825057
3	15883991	3540	3.156512523899
3	15883991	3540	3.1620842613543
3	15883991	3540	3.1567517897821
3	15883991	3540	3.15653521187
3	15883991	3540	3.1618275342176
3	15883991	3540	3.1631050278817
3	15883991	3540	3.1993075529733
3	15883991	3540	3.1966497417404
3	15883991	3540	3.1969702905406
3	15883991	3540	3.1629571874743
3	15883991	3540	3.1725140476258
3	15883991	3540	3.1798274508233
3	15883991	3540	3.1567408815562
3	15883991	3540	3.1620842613544
3	15883991	3540	3.1571146665707
3	15883991	3540	3.1568151140199
3	15883991	3540	3.1623190004678
4	15883991	3540	35
4	15883991	3540	35
4	15883991	3540	35
4	15883991	3540	35
4	15883991	3540	34
4	15883991	3540	34
4	15883991	3540	34
4	15883991	3540	35
4	15883991	3540	35
4	15883991	3540	35
4	15883991	3540	35
4	15883991	3540	35
4	15883991	3540	35
4	15883991	3540	35
4	15883991	3540	35
4	15883991	3540	35
4	15883991	3540	34
4	15883991	3540	34
4	15883991	3540	35
4	15883991	3540	35
4	15883991	3540	35
4	15883991	3540	35
4	15883991	3540	35
4	15883991	3540	35
4	15883991	3540	35
4	15883991	3540	35
4	15883991	3540	35
4	15883991	3540	35
4	15883991	3540	34
4	15883991	3540	34
4	15883991	3540	34
4	15883991	3540	35
4	15883991	3540	35
4	15883991	3540	35
4	15883991	3540	35
4	15883991	3540	35
4	15883991	3540	35
4	15883991	3540	35
4	15883991	3540	35
4	15883991	3540	34
4	15883991	3540	34
4	15883991	3540	35
4	15883991	3540	35
4	15883991	3540	34
4	15883991	3540	34
4	15883991	3540	34
4	15883991	3540	35
4	15883991	3540	35
4	15883991	3540	35
4	15883991	3540	35
4	15883991	3540	35
4	15883991	3540	34
4	15883991	3540	35
4	15883991	3540	34
4	15883991	3540	35
4	15883991	3540	35
4	15883991	3540	35
4	15883991	3540	34
4	15883991	3540	35
4	15883991	3540	35
4	15883991	3540	35
4	15883991	3540	35
4	15883991	3540	35
4	15883991	3540	34
4	15883991	3540	35
4	15883991	3540	34
4	15883991	3540	35
4	15883991	3540	35
4	15883991	3540	35
4	15883991	3540	35
4	15883991	3540	35
4	15883991	3540	35
4	15883991	3540	35
4	15883991	3540	35
4	15883991	3540	35
4	15883991	3540	34
4	15883991	3540	35
4	15883991	3540	35
4	15883991	3540	34
4	15883991	3540	35
4	15883991	3540	35
4	15883991	3540	35
4	15883991	3540	35
4	15883991	3540	35
4	15883991	3540	35
4	15883991	3540	35
4	15883991	3540	35
4	15883991	3540	34
4	15883991	3540	35
4	15883991	3540	35
4	15883991	3540	34
4	15883991	3540	35
4	15883991	3540	35
4	15883991	3540	35
4	15883991	3540	35
4	15883991	3540	35
4	15883991	3540	35
4	15883991	3540	35
4	15883991	3540	35
4	15883991	3540	35
4	15883991	3540	35
4	15883991	3540	35
4	15883991	3540	35
4	15883991	3540	35
4	15883991	3540	35
4	15883991	3540	35
4	15883991	3540	35
4	15883991	3540	35
4	15883991	3540	35
4	15883991	3540	35
4	15883991	3540	35
4	15883991	3540	35
4	15883991	3540	35
4	15883991	3540	35
4	15883991	3540	35
4	15883991	3540	35
4	15883991	3540	35
4	15883991	3540	35
4	15883991	3540	35
4	15883991	3540	35
4	15883991	3540	35
4	15883991	3540	35
4	15883991	3540	35
4	15883991	3540	35
4	15883991	3540	35
4	15883991	3540	35
4	15883991	3540	35
4	15883991	3540	35
4	15883991	3540	35
4	15883991	3540	35
4	15883991	3540	35
4	15883991	3540	35
4	15883991	3540	35
4	15883991	3540	35
4	15883991	3540	35
4	15883991	3540	35
4	15883991	3540	35
4	15883991	3540	35
4	15883991	3540	35
4	15883991	3540	35
4	15883991	3540	35
4	15883991	3540	35
4	15883991	3540	35
4	15883991	3540	35
