version 2
run General-0-20140524-22:25:59-4848
attr configname General
attr datetime 20140524-22:25:59
attr experiment General
attr inifile omnetpp.ini
attr iterationvars ""
attr iterationvars2 $repetition=0
attr measurement ""
attr network WSN
attr processid 4848
attr repetition 0
attr replication #0
attr resultdir results
attr runnumber 0
attr seedset 0

vector 2  WSN.statistic  networkEnergy:vector  ETV
attr title  "Node energy, vector"
vector 3  WSN.statistic  sensorEnergy:vector  ETV
attr title  "Sensor energy, vector"
vector 4  WSN.statistic  sensorEnergyLevel:vector  ETV
attr title  "Sensor energy (level), vector"
2	146	0	1296
2	1197133	60	1281.6189794714
2	2424113	120	1267.233053307
2	3198882	180	1252.8992599401
2	3859909	240	1238.5777473273
2	4365400	300	1224.2739197849
2	4770332	360	1209.9814042274
2	5187486	420	1195.6878063864
2	5578396	480	1181.3970664609
2	5929233	540	1167.110573269
2	6225665	600	1152.8301999588
2	6510759	660	1138.5512000644
2	6781058	720	1124.273972372
2	7057773	780	1109.9958782257
2	7335242	840	1095.7175686594
2	7611695	900	1081.439606181
2	7845926	960	1067.1660253397
2	8109314	1020	1052.8895354049
2	8335543	1080	1038.6171895889
2	8556296	1140	1024.3452782612
2	8759930	1200	1010.0753282257
2	8973116	1260	995.80440966309
2	9177523	1320	981.53432304916
2	9376629	1380	967.26500939827
2	9585595	1440	952.99464831803
2	9794308	1500	938.72433934643
2	9999438	1560	924.45440235383
2	10200107	1620	910.18492868583
2	10403596	1680	895.9150500393
2	10601506	1740	881.64586241576
2	10804686	1800	867.3758049539
2	11007006	1860	853.10621771656
2	11203638	1920	838.83700724834
2	11383984	1980	824.56966889778
2	11586379	2040	810.30005976206
2	11766904	2100	796.03262821951
2	11959505	2160	781.76397838398
2	12142800	2220	767.4965288107
2	12327945	2280	753.22866276366
2	12507684	2340	738.96127656874
2	12678944	2400	724.69470306899
2	12850048	2460	710.42842807405
2	13016926	2520	696.16261743035
2	13187387	2580	681.89644941701
2	13366757	2640	667.62915566916
2	13524877	2700	653.36421058577
2	13708977	2760	639.09675948402
2	13873781	2820	624.83093007836
2	14037352	2880	610.56542100462
2	14209636	2940	596.29878139267
2	14382016	3000	582.03221184802
2	14560069	3060	567.76523585775
2	14726815	3120	553.49955003213
2	14898336	3180	539.23331223047
2	15065093	3240	524.96741738068
2	15240908	3300	510.70079880146
2	15410747	3360	496.43458891196
2	15582092	3420	482.16826743817
2	15740853	3480	467.90323067637
3	16071776	3600	3.0821842804926
3	16071776	3600	3.0816555830923
3	16071776	3600	3.0851008658496
3	16071776	3600	3.088738396222
3	16071776	3600	3.0825130470461
3	16071776	3600	3.0573695280425
3	16071776	3600	3.0702383008741
3	16071776	3600	3.0569070086904
3	16071776	3600	3.0590965331941
3	16071776	3600	3.0847466765862
3	16071776	3600	3.0834294159831
3	16071776	3600	3.0846007949832
3	16071776	3600	3.0821856318426
3	16071776	3600	3.0813842966918
3	16071776	3600	3.0892187235016
3	16071776	3600	3.0845120409994
3	16071776	3600	3.0702241077707
3	16071776	3600	3.0738350109997
3	16071776	3600	3.0496444055443
3	16071776	3600	3.0614495021374
3	16071776	3600	3.0613361300876
3	16071776	3600	3.0861780639732
3	16071776	3600	3.0952253844288
3	16071776	3600	3.0844662941332
3	16071776	3600	3.082094689893
3	16071776	3600	3.0901683233927
3	16071776	3600	3.0889800172814
3	16071776	3600	3.0853166628312
3	16071776	3600	3.0738884605937
3	16071776	3600	3.0834483339441
3	16071776	3600	3.0601725729886
3	16071776	3600	3.0616409648375
3	16071776	3600	3.0777804929791
3	16071776	3600	3.0863575192698
3	16071776	3600	3.0861280361509
3	16071776	3600	3.0972503060561
3	16071776	3600	3.0972312454273
3	16071776	3600	3.0890195254309
3	16071776	3600	3.084988350031
3	16071776	3600	3.0753720520191
3	16071776	3600	3.0847882569316
3	16071776	3600	3.0828051996943
3	16071776	3600	3.0779726706788
3	16071776	3600	3.0632701594659
3	16071776	3600	3.0769382850404
3	16071776	3600	3.077525013966
3	16071776	3600	3.0853763544705
3	16071776	3600	3.0866582020514
3	16071776	3600	3.097334713078
3	16071776	3600	3.0884564343303
3	16071776	3600	3.0802570672113
3	16071776	3600	3.0832598947319
3	16071776	3600	3.063959838213
3	16071776	3600	3.0830233268144
3	16071776	3600	3.086155480933
3	16071776	3600	3.0823867742361
3	16071776	3600	3.0641182364777
3	16071776	3600	3.0788158758253
3	16071776	3600	3.0865437085507
3	16071776	3600	3.086180464351
3	16071776	3600	3.0640548784509
3	16071776	3600	3.0969950776279
3	16071776	3600	3.0775114329826
3	16071776	3600	3.0748044396851
3	16071776	3600	3.064102399168
3	16071776	3600	3.0862161322674
3	16071776	3600	3.0873032026506
3	16071776	3600	3.0858542931029
3	16071776	3600	3.0641129572116
3	16071776	3600	3.0889770655814
3	16071776	3600	3.0846966408515
3	16071776	3600	3.0865229522844
3	16071776	3600	3.0641023983814
3	16071776	3600	3.0796965989328
3	16071776	3600	3.0766764631342
3	16071776	3600	3.077838114284
3	16071776	3600	3.0641076781422
3	16071776	3600	3.0611263861301
3	16071776	3600	3.086211275768
3	16071776	3600	3.0859060189415
3	16071776	3600	3.0640654385676
3	16071776	3600	3.0897054447782
3	16071776	3600	3.0854811027741
3	16071776	3600	3.0901587157278
3	16071776	3600	3.0640918381923
3	16071776	3600	3.086404692526
3	16071776	3600	3.0768773407341
3	16071776	3600	3.084510112477
3	16071776	3600	3.0639862377956
3	16071776	3600	3.0612909837986
3	16071776	3600	3.0599281275304
3	16071776	3600	3.0866922770469
3	16071776	3600	3.0639651179028
3	16071776	3600	3.089005420178
3	16071776	3600	3.0883503822787
3	16071776	3600	3.089639233028
3	16071776	3600	3.0641868786299
3	16071776	3600	3.0850855285263
3	16071776	3600	3.0853323432262
3	16071776	3600	3.0955636696147
3	16071776	3600	3.0639598378618
3	16071776	3600	3.0606699004298
3	16071776	3600	3.0755045907188
3	16071776	3600	3.0915707456042
3	16071776	3600	3.0640179196951
3	16071776	3600	3.0956851477546
3	16071776	3600	3.0892229447079
3	16071776	3600	3.0888195710378
3	16071776	3600	3.0639281579516
3	16071776	3600	3.0853947553603
3	16071776	3600	3.0850417687318
3	16071776	3600	3.0967902534285
3	16071776	3600	3.0639175978669
3	16071776	3600	3.0757591164192
3	16071776	3600	3.066702653457
3	16071776	3600	3.0925529287337
3	16071776	3600	3.0639967988702
3	16071776	3600	3.0956885638044
3	16071776	3600	3.0967523573042
3	16071776	3600	3.089182759509
3	16071776	3600	3.0640495980258
3	16071776	3600	3.0859177053328
3	16071776	3600	3.0731318635187
3	16071776	3600	3.0731637134684
3	16071776	3600	3.0640601573827
3	16071776	3600	3.0674322213077
3	16071776	3600	3.0674657454575
3	16071776	3600	3.0674181996083
3	16071776	3600	3.064118237789
3	16071776	3600	3.0783500831028
3	16071776	3600	3.0785981149523
3	16071776	3600	3.0782739114031
3	16071776	3600	3.0640126398557
3	16071776	3600	3.0731778941194
3	16071776	3600	3.073498515519
3	16071776	3600	3.0733650497693
3	16071776	3600	3.0640759980831
3	16071776	3600	3.1145591768731
3	16071776	3600	3.0675439692076
3	16071776	3600	3.0676687053583
3	16071776	3600	3.0640284775386
3	16071776	3600	3.0790513034037
3	16071776	3600	3.078932851002
3	16071776	3600	3.0789468386039
4	16071776	3600	34
4	16071776	3600	34
4	16071776	3600	34
4	16071776	3600	34
4	16071776	3600	34
4	16071776	3600	33
4	16071776	3600	34
4	16071776	3600	33
4	16071776	3600	33
4	16071776	3600	34
4	16071776	3600	34
4	16071776	3600	34
4	16071776	3600	34
4	16071776	3600	34
4	16071776	3600	34
4	16071776	3600	34
4	16071776	3600	34
4	16071776	3600	34
4	16071776	3600	33
4	16071776	3600	34
4	16071776	3600	34
4	16071776	3600	34
4	16071776	3600	34
4	16071776	3600	34
4	16071776	3600	34
4	16071776	3600	34
4	16071776	3600	34
4	16071776	3600	34
4	16071776	3600	34
4	16071776	3600	34
4	16071776	3600	34
4	16071776	3600	34
4	16071776	3600	34
4	16071776	3600	34
4	16071776	3600	34
4	16071776	3600	34
4	16071776	3600	34
4	16071776	3600	34
4	16071776	3600	34
4	16071776	3600	34
4	16071776	3600	34
4	16071776	3600	34
4	16071776	3600	34
4	16071776	3600	34
4	16071776	3600	34
4	16071776	3600	34
4	16071776	3600	34
4	16071776	3600	34
4	16071776	3600	34
4	16071776	3600	34
4	16071776	3600	34
4	16071776	3600	34
4	16071776	3600	34
4	16071776	3600	34
4	16071776	3600	34
4	16071776	3600	34
4	16071776	3600	34
4	16071776	3600	34
4	16071776	3600	34
4	16071776	3600	34
4	16071776	3600	34
4	16071776	3600	34
4	16071776	3600	34
4	16071776	3600	34
4	16071776	3600	34
4	16071776	3600	34
4	16071776	3600	34
4	16071776	3600	34
4	16071776	3600	34
4	16071776	3600	34
4	16071776	3600	34
4	16071776	3600	34
4	16071776	3600	34
4	16071776	3600	34
4	16071776	3600	34
4	16071776	3600	34
4	16071776	3600	34
4	16071776	3600	34
4	16071776	3600	34
4	16071776	3600	34
4	16071776	3600	34
4	16071776	3600	34
4	16071776	3600	34
4	16071776	3600	34
4	16071776	3600	34
4	16071776	3600	34
4	16071776	3600	34
4	16071776	3600	34
4	16071776	3600	34
4	16071776	3600	34
4	16071776	3600	33
4	16071776	3600	34
4	16071776	3600	34
4	16071776	3600	34
4	16071776	3600	34
4	16071776	3600	34
4	16071776	3600	34
4	16071776	3600	34
4	16071776	3600	34
4	16071776	3600	34
4	16071776	3600	34
4	16071776	3600	34
4	16071776	3600	34
4	16071776	3600	34
4	16071776	3600	34
4	16071776	3600	34
4	16071776	3600	34
4	16071776	3600	34
4	16071776	3600	34
4	16071776	3600	34
4	16071776	3600	34
4	16071776	3600	34
4	16071776	3600	34
4	16071776	3600	34
4	16071776	3600	34
4	16071776	3600	34
4	16071776	3600	34
4	16071776	3600	34
4	16071776	3600	34
4	16071776	3600	34
4	16071776	3600	34
4	16071776	3600	34
4	16071776	3600	34
4	16071776	3600	34
4	16071776	3600	34
4	16071776	3600	34
4	16071776	3600	34
4	16071776	3600	34
4	16071776	3600	34
4	16071776	3600	34
4	16071776	3600	34
4	16071776	3600	34
4	16071776	3600	34
4	16071776	3600	34
4	16071776	3600	34
4	16071776	3600	34
4	16071776	3600	34
4	16071776	3600	34
4	16071776	3600	34
4	16071776	3600	34
4	16071776	3600	34
4	16071776	3600	34
4	16071776	3600	34
4	16071776	3600	34
