version 2
run Experiment-0-20150330-15:35:47-6248
attr configname Experiment
attr datetime 20150330-15:35:47
attr experiment Experiment
attr inifile omnetpp.ini
attr iterationvars ""
attr iterationvars2 $repetition=0
attr measurement ""
attr network WSN
attr processid 6248
attr repetition 0
attr replication #0
attr resultdir results
attr runnumber 0
attr seedset 0

vector 8  WSN.statistic  sensorEnergy:vector  ETV
attr title  "Sensor energy, vector"
vector 9  WSN.statistic  sensorEnergyLevel:vector  ETV
attr title  "Sensor energy (level), vector"
8	86995748	3540	3.0854011238573
8	86995748	3540	3.052819686312
8	86995748	3540	3.0547850325029
8	86995748	3540	3.0655502191315
8	86995748	3540	3.0950650883147
8	86995748	3540	3.0582884074211
8	86995748	3540	3.0810113922856
8	86995748	3540	3.1035991640725
8	86995748	3540	3.0855635863798
8	86995748	3540	3.0683680626176
8	86995748	3540	3.0655200923891
8	86995748	3540	3.0702750877703
8	86995748	3540	3.0611026326196
8	86995748	3540	3.1115754134723
8	86995748	3540	3.0775832218614
8	86995748	3540	3.0901863514197
8	86995748	3540	3.0666602230662
8	86995748	3540	3.0594735623011
8	86995748	3540	3.0364871626316
8	86995748	3540	3.089308702519
8	86995748	3540	3.0652856501409
8	86995748	3540	3.1601401433404
8	86995748	3540	3.0740760672865
8	86995748	3540	3.0576566444527
8	86995748	3540	3.0733168757339
8	86995748	3540	3.0602035045707
8	86995748	3540	3.1632202491098
8	86995748	3540	3.0948434366117
8	86995748	3540	3.1045115982144
8	86995748	3540	3.0706116973149
8	86995748	3540	3.0671472744472
8	86995748	3540	3.1595562166097
8	86995748	3540	3.0724252644883
8	86995748	3540	3.0975670128706
8	86995748	3540	3.0638639973885
8	86995748	3540	3.0884283932745
8	86995748	3540	3.1616940453753
8	86995748	3540	3.0702389734752
8	86995748	3540	3.1072198415551
8	86995748	3540	3.0642756845775
8	86995748	3540	3.1035860428149
8	86995748	3540	3.0972484423174
8	86995748	3540	3.1085465060131
8	86995748	3540	3.0619419345122
8	86995748	3540	3.066995429665
8	86995748	3540	3.1012336132965
8	86995748	3540	3.0882517008249
8	86995748	3540	3.1047967320669
8	86995748	3540	3.0637603597713
8	86995748	3540	3.0507783260816
8	86995748	3540	3.0723181307203
8	86995748	3540	3.1025270939839
8	86995748	3540	3.1036863685061
8	86995748	3540	3.031111171441
8	86995748	3540	3.1162885209742
8	86995748	3540	3.0891520157906
8	86995748	3540	3.0757090428391
8	86995748	3540	3.065955990736
8	86995748	3540	3.1072436208787
8	86995748	3540	3.0729864648231
8	86995748	3540	3.0949470845554
8	86995748	3540	3.066817589102
8	86995748	3540	3.0517960859345
8	86995748	3540	3.0658308490797
8	86995748	3540	3.0902616012541
8	86995748	3540	3.0392272236392
8	86995748	3540	3.0256171202799
8	86995748	3540	3.0854016199229
8	86995748	3540	3.0670018631659
8	86995748	3540	3.0804087122455
8	86995748	3540	3.0639377841018
8	86995748	3540	3.0764264922441
8	86995748	3540	3.0647449032217
8	86995748	3540	3.1080029933501
8	86995748	3540	3.0727163051517
8	86995748	3540	3.094729570282
8	86995748	3540	3.0634230483175
8	86995748	3540	3.105880653596
8	86995748	3540	3.0664758651242
8	86995748	3540	3.0677402828773
8	86995748	3540	3.0895988201151
8	86995748	3540	3.0778158579411
8	86995748	3540	3.1235610155935
8	86995748	3540	3.159009703575
8	86995748	3540	3.159003648711
8	86995748	3540	3.1590036487111
8	86995748	3540	3.1590036487116
8	86995748	3540	3.1619700925502
8	86995748	3540	3.1609806666975
8	86995748	3540	3.1620865562908
8	86995748	3540	3.1614954938402
8	86995748	3540	3.159003398728
8	86995748	3540	3.1591469461969
8	86995748	3540	3.0629695132696
8	86995748	3540	3.0897249127612
8	86995748	3540	3.0595243313782
8	86995748	3540	3.0727342320058
8	86995748	3540	3.0757590951153
8	86995748	3540	3.0728419240651
8	86995748	3540	3.0694589169707
8	86995748	3540	3.0423469041369
8	86995748	3540	3.0865584691837
8	86995748	3540	3.0771762413316
8	86995748	3540	3.0798867977218
8	86995748	3540	3.0764030194735
8	86995748	3540	3.1593885170797
8	86995748	3540	3.076761037712
8	86995748	3540	3.0906234835116
8	86995748	3540	3.0537540354542
8	86995748	3540	3.0772369263819
8	86995748	3540	3.1591914072808
8	86995748	3540	3.0720950457758
8	86995748	3540	3.0963925311725
8	86995748	3540	3.068829062994
8	86995748	3540	3.1609830171444
8	86995748	3540	3.1593885170801
8	86995748	3540	3.0790146092222
8	86995748	3540	3.0693083736778
8	86995748	3540	3.1609262540715
8	86995748	3540	3.1602094787631
8	86995748	3540	3.1603323662523
8	86995748	3540	3.075881555703
8	86995748	3540	3.1601378707383
8	86995748	3540	3.0902866136663
8	86995748	3540	3.0698603206928
8	86995748	3540	3.1609830171448
8	86995748	3540	9
8	86995748	3540	9
8	86995748	3540	3.15938851708
8	86995748	3540	3.076818942699
8	86995748	3540	3.0504587308542
8	86995748	3540	3.0660695819795
8	86995748	3540	3.066817062871
8	86995748	3540	3.095569098921
8	86995748	3540	3.0655338128874
8	86995748	3540	3.1601378707378
8	86995748	3540	3.1548305964137
8	86995748	3540	3.1626601384597
8	86995748	3540	9
8	86995748	3540	9
8	86995748	3540	3.1620595261306
8	86995748	3540	3.0638058782318
8	86995748	3540	3.1108120804581
8	86995748	3540	3.0640434254307
9	86995748	3540	34
9	86995748	3540	33
9	86995748	3540	33
9	86995748	3540	34
9	86995748	3540	34
9	86995748	3540	33
9	86995748	3540	34
9	86995748	3540	34
9	86995748	3540	34
9	86995748	3540	34
9	86995748	3540	34
9	86995748	3540	34
9	86995748	3540	34
9	86995748	3540	34
9	86995748	3540	34
9	86995748	3540	34
9	86995748	3540	34
9	86995748	3540	33
9	86995748	3540	33
9	86995748	3540	34
9	86995748	3540	34
9	86995748	3540	35
9	86995748	3540	34
9	86995748	3540	33
9	86995748	3540	34
9	86995748	3540	34
9	86995748	3540	35
9	86995748	3540	34
9	86995748	3540	34
9	86995748	3540	34
9	86995748	3540	34
9	86995748	3540	35
9	86995748	3540	34
9	86995748	3540	34
9	86995748	3540	34
9	86995748	3540	34
9	86995748	3540	35
9	86995748	3540	34
9	86995748	3540	34
9	86995748	3540	34
9	86995748	3540	34
9	86995748	3540	34
9	86995748	3540	34
9	86995748	3540	34
9	86995748	3540	34
9	86995748	3540	34
9	86995748	3540	34
9	86995748	3540	34
9	86995748	3540	34
9	86995748	3540	33
9	86995748	3540	34
9	86995748	3540	34
9	86995748	3540	34
9	86995748	3540	33
9	86995748	3540	34
9	86995748	3540	34
9	86995748	3540	34
9	86995748	3540	34
9	86995748	3540	34
9	86995748	3540	34
9	86995748	3540	34
9	86995748	3540	34
9	86995748	3540	33
9	86995748	3540	34
9	86995748	3540	34
9	86995748	3540	33
9	86995748	3540	33
9	86995748	3540	34
9	86995748	3540	34
9	86995748	3540	34
9	86995748	3540	34
9	86995748	3540	34
9	86995748	3540	34
9	86995748	3540	34
9	86995748	3540	34
9	86995748	3540	34
9	86995748	3540	34
9	86995748	3540	34
9	86995748	3540	34
9	86995748	3540	34
9	86995748	3540	34
9	86995748	3540	34
9	86995748	3540	34
9	86995748	3540	35
9	86995748	3540	35
9	86995748	3540	35
9	86995748	3540	35
9	86995748	3540	35
9	86995748	3540	35
9	86995748	3540	35
9	86995748	3540	35
9	86995748	3540	35
9	86995748	3540	35
9	86995748	3540	34
9	86995748	3540	34
9	86995748	3540	33
9	86995748	3540	34
9	86995748	3540	34
9	86995748	3540	34
9	86995748	3540	34
9	86995748	3540	33
9	86995748	3540	34
9	86995748	3540	34
9	86995748	3540	34
9	86995748	3540	34
9	86995748	3540	35
9	86995748	3540	34
9	86995748	3540	34
9	86995748	3540	33
9	86995748	3540	34
9	86995748	3540	35
9	86995748	3540	34
9	86995748	3540	34
9	86995748	3540	34
9	86995748	3540	35
9	86995748	3540	35
9	86995748	3540	34
9	86995748	3540	34
9	86995748	3540	35
9	86995748	3540	35
9	86995748	3540	35
9	86995748	3540	34
9	86995748	3540	35
9	86995748	3540	34
9	86995748	3540	34
9	86995748	3540	35
9	86995748	3540	100
9	86995748	3540	100
9	86995748	3540	35
9	86995748	3540	34
9	86995748	3540	33
9	86995748	3540	34
9	86995748	3540	34
9	86995748	3540	34
9	86995748	3540	34
9	86995748	3540	35
9	86995748	3540	35
9	86995748	3540	35
9	86995748	3540	100
9	86995748	3540	100
9	86995748	3540	35
9	86995748	3540	34
9	86995748	3540	34
9	86995748	3540	34
