version 2
run Experiment-0-20150330-15:15:23-6380
attr configname Experiment
attr datetime 20150330-15:15:23
attr experiment Experiment
attr inifile omnetpp.ini
attr iterationvars ""
attr iterationvars2 $repetition=0
attr measurement ""
attr network WSN
attr processid 6380
attr repetition 0
attr replication #0
attr resultdir results
attr runnumber 0
attr seedset 0

vector 13  WSN.statistic  sensorEnergy:vector  ETV
attr title  "Sensor energy, vector"
vector 14  WSN.statistic  sensorEnergyLevel:vector  ETV
attr title  "Sensor energy (level), vector"
13	8548438	3540	3.163405256444
13	8548438	3540	3.1600986987973
13	8548438	3540	3.1589977412485
13	8548438	3540	3.1575372287034
13	8548438	3540	3.1571145597424
13	8548438	3540	3.157996462562
13	8548438	3540	3.1418138446318
13	8548438	3540	3.1538659482654
13	8548438	3540	3.1542438122481
13	8548438	3540	3.195511022786
13	8548438	3540	3.1613830892117
13	8548438	3540	3.1580962312668
13	8548438	3540	3.1601491062976
13	8548438	3540	3.1597785525982
13	8548438	3540	3.1601808797971
13	8548438	3540	3.1619359818389
13	8548438	3540	3.1566160899011
13	8548438	3540	3.1520933911723
13	8548438	3540	3.1407038416504
13	8548438	3540	3.1526633891724
13	8548438	3540	3.153054972399
13	8548438	3540	3.1613108590433
13	8548438	3540	3.157545633013
13	8548438	3540	3.1579344698649
13	8548438	3540	3.1741752988886
13	8548438	3540	3.1600500023476
13	8548438	3540	3.1646865259636
13	8548438	3540	3.1606174135993
13	8548438	3540	3.1585951333425
13	8548438	3540	3.1539523557539
13	8548438	3540	3.1477461956938
13	8548438	3540	3.1580173358448
13	8548438	3540	3.1564625743973
13	8548438	3540	3.1566905773135
13	8548438	3540	3.157751626713
13	8548438	3540	3.1582837974147
13	8548438	3540	3.1642015296224
13	8548438	3540	3.160353127683
13	8548438	3540	3.1607526689279
13	8548438	3540	3.1580162837524
13	8548438	3540	3.1574155949735
13	8548438	3540	3.1604297008418
13	8548438	3540	3.1640635535886
13	8548438	3540	3.1587083069928
13	8548438	3540	3.1571471796132
13	8548438	3540	3.1574032369138
13	8548438	3540	3.1674550908106
13	8548438	3540	3.1679812490537
13	8548438	3540	3.1623322974789
13	8548438	3540	3.1595946941838
13	8548438	3540	3.1584879669299
13	8548438	3540	3.1608183147271
13	8548438	3540	3.1587532978722
13	8548438	3540	3.1609313161989
13	8548438	3540	3.1966777719616
13	8548438	3540	3.1967783350611
13	8548438	3540	3.2216801394143
13	8548438	3540	3.1658568692225
13	8548438	3540	3.1678051256593
13	8548438	3540	3.1680287595093
13	8548438	3540	3.162757244023
13	8548438	3540	3.1623847938788
13	8548438	3540	3.1641211424792
13	8548438	3540	3.1641448958785
13	8548438	3540	3.1702336598487
13	8548438	3540	3.1999542802507
13	8548438	3540	3.2116806145084
13	8548438	3540	3.2382206915728
13	8548438	3540	3.1583505334407
13	8548438	3540	3.1742519099272
13	8548438	3540	3.2628291792916
13	8548438	3540	3.1580233659777
13	8548438	3540	3.197232155853
13	8548438	3540	3.20035418465
13	8548438	3540	9
13	8548438	3540	9
13	8548438	3540	9
13	8548438	3540	9
13	8548438	3540	9
13	8548438	3540	9
13	8548438	3540	9
13	8548438	3540	9
13	8548438	3540	9
13	8548438	3540	9
13	8548438	3540	3.2367169412934
13	8548438	3540	3.2025631157317
13	8548438	3540	9
13	8548438	3540	9
13	8548438	3540	9
13	8548438	3540	9
13	8548438	3540	9
13	8548438	3540	9
13	8548438	3540	9
13	8548438	3540	9
13	8548438	3540	9
13	8548438	3540	9
13	8548438	3540	9
13	8548438	3540	9
13	8548438	3540	9
13	8548438	3540	9
13	8548438	3540	9
13	8548438	3540	9
13	8548438	3540	9
13	8548438	3540	9
13	8548438	3540	9
13	8548438	3540	9
13	8548438	3540	9
13	8548438	3540	9
13	8548438	3540	9
13	8548438	3540	9
13	8548438	3540	9
13	8548438	3540	9
13	8548438	3540	9
13	8548438	3540	9
13	8548438	3540	9
13	8548438	3540	9
13	8548438	3540	9
13	8548438	3540	9
13	8548438	3540	9
13	8548438	3540	9
13	8548438	3540	9
13	8548438	3540	9
13	8548438	3540	9
13	8548438	3540	9
13	8548438	3540	9
13	8548438	3540	9
13	8548438	3540	9
13	8548438	3540	9
13	8548438	3540	9
13	8548438	3540	9
13	8548438	3540	9
13	8548438	3540	9
13	8548438	3540	9
13	8548438	3540	9
13	8548438	3540	9
13	8548438	3540	9
13	8548438	3540	9
13	8548438	3540	9
13	8548438	3540	9
13	8548438	3540	9
13	8548438	3540	9
13	8548438	3540	9
13	8548438	3540	9
13	8548438	3540	9
14	8548438	3540	35
14	8548438	3540	35
14	8548438	3540	35
14	8548438	3540	35
14	8548438	3540	35
14	8548438	3540	35
14	8548438	3540	34
14	8548438	3540	35
14	8548438	3540	35
14	8548438	3540	35
14	8548438	3540	35
14	8548438	3540	35
14	8548438	3540	35
14	8548438	3540	35
14	8548438	3540	35
14	8548438	3540	35
14	8548438	3540	35
14	8548438	3540	35
14	8548438	3540	34
14	8548438	3540	35
14	8548438	3540	35
14	8548438	3540	35
14	8548438	3540	35
14	8548438	3540	35
14	8548438	3540	35
14	8548438	3540	35
14	8548438	3540	35
14	8548438	3540	35
14	8548438	3540	35
14	8548438	3540	35
14	8548438	3540	34
14	8548438	3540	35
14	8548438	3540	35
14	8548438	3540	35
14	8548438	3540	35
14	8548438	3540	35
14	8548438	3540	35
14	8548438	3540	35
14	8548438	3540	35
14	8548438	3540	35
14	8548438	3540	35
14	8548438	3540	35
14	8548438	3540	35
14	8548438	3540	35
14	8548438	3540	35
14	8548438	3540	35
14	8548438	3540	35
14	8548438	3540	35
14	8548438	3540	35
14	8548438	3540	35
14	8548438	3540	35
14	8548438	3540	35
14	8548438	3540	35
14	8548438	3540	35
14	8548438	3540	35
14	8548438	3540	35
14	8548438	3540	35
14	8548438	3540	35
14	8548438	3540	35
14	8548438	3540	35
14	8548438	3540	35
14	8548438	3540	35
14	8548438	3540	35
14	8548438	3540	35
14	8548438	3540	35
14	8548438	3540	35
14	8548438	3540	35
14	8548438	3540	35
14	8548438	3540	35
14	8548438	3540	35
14	8548438	3540	36
14	8548438	3540	35
14	8548438	3540	35
14	8548438	3540	35
14	8548438	3540	100
14	8548438	3540	100
14	8548438	3540	100
14	8548438	3540	100
14	8548438	3540	100
14	8548438	3540	100
14	8548438	3540	100
14	8548438	3540	100
14	8548438	3540	100
14	8548438	3540	100
14	8548438	3540	35
14	8548438	3540	35
14	8548438	3540	100
14	8548438	3540	100
14	8548438	3540	100
14	8548438	3540	100
14	8548438	3540	100
14	8548438	3540	100
14	8548438	3540	100
14	8548438	3540	100
14	8548438	3540	100
14	8548438	3540	100
14	8548438	3540	100
14	8548438	3540	100
14	8548438	3540	100
14	8548438	3540	100
14	8548438	3540	100
14	8548438	3540	100
14	8548438	3540	100
14	8548438	3540	100
14	8548438	3540	100
14	8548438	3540	100
14	8548438	3540	100
14	8548438	3540	100
14	8548438	3540	100
14	8548438	3540	100
14	8548438	3540	100
14	8548438	3540	100
14	8548438	3540	100
14	8548438	3540	100
14	8548438	3540	100
14	8548438	3540	100
14	8548438	3540	100
14	8548438	3540	100
14	8548438	3540	100
14	8548438	3540	100
14	8548438	3540	100
14	8548438	3540	100
14	8548438	3540	100
14	8548438	3540	100
14	8548438	3540	100
14	8548438	3540	100
14	8548438	3540	100
14	8548438	3540	100
14	8548438	3540	100
14	8548438	3540	100
14	8548438	3540	100
14	8548438	3540	100
14	8548438	3540	100
14	8548438	3540	100
14	8548438	3540	100
14	8548438	3540	100
14	8548438	3540	100
14	8548438	3540	100
14	8548438	3540	100
14	8548438	3540	100
14	8548438	3540	100
14	8548438	3540	100
14	8548438	3540	100
14	8548438	3540	100
