version 2
run General-0-20140524-16:49:13-10609
attr configname General
attr datetime 20140524-16:49:13
attr experiment General
attr inifile omnetpp.ini
attr iterationvars ""
attr iterationvars2 $repetition=0
attr measurement ""
attr network WSN
attr processid 10609
attr repetition 0
attr replication #0
attr resultdir results
attr runnumber 0
attr seedset 0

vector 2  WSN.statistic  networkEnergy:vector  ETV
attr title  "Node energy, vector"
vector 3  WSN.statistic  sensorEnergy:vector  ETV
attr title  "Sensor energy, vector"
vector 4  WSN.statistic  sensorEnergyLevel:vector  ETV
attr title  "Sensor energy (level), vector"
2	146	0	1296
2	1229267	60	1281.6153163368
2	2437644	120	1267.2315619627
2	3183360	180	1252.9011897646
2	3840475	240	1238.5805718632
2	4323286	300	1224.2794682838
2	4744255	360	1209.9852886569
2	5153130	420	1195.6924882315
2	5547443	480	1181.4013450984
2	5892026	540	1167.1156365255
2	6182236	600	1152.836005487
2	6466077	660	1138.5568721647
2	6744577	720	1124.2788015023
2	7022828	780	1110.0003931744
2	7292846	840	1095.7231073231
2	7572246	900	1081.4449677325
2	7815943	960	1067.1701861345
2	8063991	1020	1052.8953769759
2	8287210	1080	1038.6231807939
2	8512036	1140	1024.3508224662
2	8719014	1200	1010.0804249958
2	8933870	1260	995.80936276781
2	9138017	1320	981.53946668562
2	9348161	1380	967.26883344888
2	9551506	1440	952.99916824843
2	9763213	1500	938.72851806645
2	9961272	1560	924.45909790091
2	10167742	1620	910.18879202507
2	10361372	1680	895.91992562821
2	10573459	1740	881.64913779833
2	10776120	1800	867.37946897227
2	10977887	1860	853.10962593668
2	11176395	1920	838.84038848444
2	11371063	1980	824.57151901245
2	11558917	2040	810.30325554146
2	11738178	2100	796.03571596728
2	11923215	2160	781.76791073409
2	12105922	2220	767.50029540959
2	12285708	2280	753.23317165739
2	12467268	2340	738.96545199315
2	12636584	2400	724.69934049615
2	12808535	2460	710.43296239915
2	12977184	2520	696.16705529881
2	13158118	2580	681.89971035743
2	13324714	2640	667.63388557654
2	13490302	2700	653.36820265109
2	13665165	2760	639.10142198912
2	13831520	2820	624.83558486106
2	14005391	2880	610.56903780668
2	14168286	2940	596.30371993632
2	14353491	3000	582.03599027692
2	14526243	3060	567.76960412889
2	14693436	3120	553.50378631023
2	14859581	3180	539.23795057774
2	15035707	3240	524.97128760839
2	15209384	3300	510.7048252719
2	15374895	3360	496.43903693162
2	15544550	3420	482.1729560803
2	15712772	3480	467.90690151138
3	16031470	3600	3.1030976403744
3	16031470	3600	3.1028917022233
3	16031470	3600	3.1040546846465
3	16031470	3600	3.0982478673043
3	16031470	3600	3.082401206549
3	16031470	3600	3.0477382860821
3	16031470	3600	3.0791629202001
3	16031470	3600	3.0802716121845
3	16031470	3600	3.0812580158481
3	16031470	3600	3.0842736474577
3	16031470	3600	3.0874986439167
3	16031470	3600	3.0881254967404
3	16031470	3600	3.1029950153234
3	16031470	3600	3.1017323418234
3	16031470	3600	3.1008489141021
3	16031470	3600	3.0896487745092
3	16031470	3600	3.073014272405
3	16031470	3600	3.0641142750906
3	16031470	3600	3.0854285875976
3	16031470	3600	3.0858762585947
3	16031470	3600	3.0827946809573
3	16031470	3600	3.0862132515671
3	16031470	3600	3.069809372491
3	16031470	3600	3.0701762406415
3	16031470	3600	3.1157272042218
3	16031470	3600	3.1061339034566
3	16031470	3600	3.0906634042383
3	16031470	3600	3.0900874413648
3	16031470	3600	3.0789616657579
3	16031470	3600	3.0683056685282
3	16031470	3600	3.0627621796459
3	16031470	3600	3.0853772686555
3	16031470	3600	3.0856066891704
3	16031470	3600	3.0847361024873
3	16031470	3600	3.0702244156912
3	16031470	3600	3.0703952869408
3	16031470	3600	3.1155312364714
3	16031470	3600	3.0902924891877
3	16031470	3600	3.0886999549228
3	16031470	3600	3.0796835112919
3	16031470	3600	3.0699572730407
3	16031470	3600	3.0756154183872
3	16031470	3600	3.075798165787
3	16031470	3600	3.0728902225026
3	16031470	3600	3.0764884330502
3	16031470	3600	3.0760685792768
3	16031470	3600	3.084921219837
3	16031470	3600	3.0702727876411
3	16031470	3600	3.1153341544222
3	16031470	3600	3.0901862792372
3	16031470	3600	3.0603685098605
3	16031470	3600	3.0529653521707
3	16031470	3600	3.0639862381663
3	16031470	3600	3.0704221416961
3	16031470	3600	3.0763991480371
3	16031470	3600	3.0831983839191
3	16031470	3600	3.0641657580886
3	16031470	3600	3.0773647159861
3	16031470	3600	3.0855673808363
3	16031470	3600	3.0853774097372
3	16031470	3600	3.0639545588484
3	16031470	3600	3.1057038510695
3	16031470	3600	3.059399392261
3	16031470	3600	3.0544885577649
3	16031470	3600	3.0640865576433
3	16031470	3600	3.0945118611648
3	16031470	3600	3.0897516122533
3	16031470	3600	3.0876047224554
3	16031470	3600	3.0640759995149
3	16031470	3600	3.1023726700564
3	16031470	3600	3.0969985518598
3	16031470	3600	3.0854126182781
3	16031470	3600	3.0641287987064
3	16031470	3600	3.0749249795535
3	16031470	3600	3.0581337432625
3	16031470	3600	3.0574165575643
3	16031470	3600	3.0639967985795
3	16031470	3600	3.0989138308401
3	16031470	3600	3.0862442460355
3	16031470	3600	3.0881651674918
3	16031470	3600	3.0640918356309
3	16031470	3600	3.1029477734438
3	16031470	3600	3.0986124659746
3	16031470	3600	3.1032955939929
3	16031470	3600	3.0639387182337
3	16031470	3600	3.0975302032418
3	16031470	3600	3.0732180545533
3	16031470	3600	3.087806587197
3	16031470	3600	3.0640971186753
3	16031470	3600	3.1144018239887
3	16031470	3600	3.0662643830468
3	16031470	3600	3.0887540016346
3	16031470	3600	3.0638964786026
3	16031470	3600	3.1032112327925
3	16031470	3600	3.1005026714442
3	16031470	3600	3.1020905456436
3	16031470	3600	3.0639703992669
3	16031470	3600	3.0966754278923
3	16031470	3600	3.0904207409139
3	16031470	3600	3.0883814218596
3	16031470	3600	3.0639915185348
3	16031470	3600	3.0694556496948
3	16031470	3600	3.0676762968469
3	16031470	3600	3.0690111116453
3	16031470	3600	3.0641182382513
3	16031470	3600	3.1034306546195
3	16031470	3600	3.1005103720718
3	16031470	3600	3.0967256900292
3	16031470	3600	3.0642132782548
3	16031470	3600	3.1046281086516
3	16031470	3600	3.0892401400646
3	16031470	3600	3.0900645455149
3	16031470	3600	3.0641604762568
3	16031470	3600	3.1145395223537
3	16031470	3600	3.0679349398452
3	16031470	3600	3.1119001038824
3	16031470	3600	3.0639334392624
3	16031470	3600	3.1026222310693
3	16031470	3600	3.0963671934288
3	16031470	3600	3.0785380976635
3	16031470	3600	3.0639809591779
3	16031470	3600	3.1051050433013
3	16031470	3600	3.0543640650084
3	16031470	3600	3.0546620418074
3	16031470	3600	3.0641129591105
3	16031470	3600	3.1138918467538
3	16031470	3600	3.1140453726536
3	16031470	3600	3.1119505658326
3	16031470	3600	3.0640548791948
3	16031470	3600	3.0907402628293
3	16031470	3600	3.0788677038629
3	16031470	3600	3.0785639850637
3	16031470	3600	3.0640548780964
3	16031470	3600	3.1057973204923
3	16031470	3600	3.0546610595083
3	16031470	3600	3.0548820995585
3	16031470	3600	3.0601843723574
3	16031470	3600	3.1149031955754
3	16031470	3600	3.1148902732687
3	16031470	3600	3.1147797238188
3	16031470	3600	3.0638436797543
3	16031470	3600	3.0909989498295
3	16031470	3600	3.0791476060128
3	16031470	3600	3.0790619974139
4	16031470	3600	34
4	16031470	3600	34
4	16031470	3600	34
4	16031470	3600	34
4	16031470	3600	34
4	16031470	3600	33
4	16031470	3600	34
4	16031470	3600	34
4	16031470	3600	34
4	16031470	3600	34
4	16031470	3600	34
4	16031470	3600	34
4	16031470	3600	34
4	16031470	3600	34
4	16031470	3600	34
4	16031470	3600	34
4	16031470	3600	34
4	16031470	3600	34
4	16031470	3600	34
4	16031470	3600	34
4	16031470	3600	34
4	16031470	3600	34
4	16031470	3600	34
4	16031470	3600	34
4	16031470	3600	34
4	16031470	3600	34
4	16031470	3600	34
4	16031470	3600	34
4	16031470	3600	34
4	16031470	3600	34
4	16031470	3600	34
4	16031470	3600	34
4	16031470	3600	34
4	16031470	3600	34
4	16031470	3600	34
4	16031470	3600	34
4	16031470	3600	34
4	16031470	3600	34
4	16031470	3600	34
4	16031470	3600	34
4	16031470	3600	34
4	16031470	3600	34
4	16031470	3600	34
4	16031470	3600	34
4	16031470	3600	34
4	16031470	3600	34
4	16031470	3600	34
4	16031470	3600	34
4	16031470	3600	34
4	16031470	3600	34
4	16031470	3600	34
4	16031470	3600	33
4	16031470	3600	34
4	16031470	3600	34
4	16031470	3600	34
4	16031470	3600	34
4	16031470	3600	34
4	16031470	3600	34
4	16031470	3600	34
4	16031470	3600	34
4	16031470	3600	34
4	16031470	3600	34
4	16031470	3600	33
4	16031470	3600	33
4	16031470	3600	34
4	16031470	3600	34
4	16031470	3600	34
4	16031470	3600	34
4	16031470	3600	34
4	16031470	3600	34
4	16031470	3600	34
4	16031470	3600	34
4	16031470	3600	34
4	16031470	3600	34
4	16031470	3600	33
4	16031470	3600	33
4	16031470	3600	34
4	16031470	3600	34
4	16031470	3600	34
4	16031470	3600	34
4	16031470	3600	34
4	16031470	3600	34
4	16031470	3600	34
4	16031470	3600	34
4	16031470	3600	34
4	16031470	3600	34
4	16031470	3600	34
4	16031470	3600	34
4	16031470	3600	34
4	16031470	3600	34
4	16031470	3600	34
4	16031470	3600	34
4	16031470	3600	34
4	16031470	3600	34
4	16031470	3600	34
4	16031470	3600	34
4	16031470	3600	34
4	16031470	3600	34
4	16031470	3600	34
4	16031470	3600	34
4	16031470	3600	34
4	16031470	3600	34
4	16031470	3600	34
4	16031470	3600	34
4	16031470	3600	34
4	16031470	3600	34
4	16031470	3600	34
4	16031470	3600	34
4	16031470	3600	34
4	16031470	3600	34
4	16031470	3600	34
4	16031470	3600	34
4	16031470	3600	34
4	16031470	3600	34
4	16031470	3600	34
4	16031470	3600	34
4	16031470	3600	34
4	16031470	3600	34
4	16031470	3600	34
4	16031470	3600	34
4	16031470	3600	34
4	16031470	3600	34
4	16031470	3600	33
4	16031470	3600	33
4	16031470	3600	34
4	16031470	3600	34
4	16031470	3600	34
4	16031470	3600	34
4	16031470	3600	34
4	16031470	3600	34
4	16031470	3600	34
4	16031470	3600	34
4	16031470	3600	34
4	16031470	3600	34
4	16031470	3600	33
4	16031470	3600	33
4	16031470	3600	34
4	16031470	3600	34
4	16031470	3600	34
4	16031470	3600	34
4	16031470	3600	34
4	16031470	3600	34
4	16031470	3600	34
4	16031470	3600	34
