version 2
run General-0-20140630-03:54:48-4817
attr configname General
attr datetime 20140630-03:54:48
attr experiment General
attr inifile omnetpp.ini
attr iterationvars ""
attr iterationvars2 $repetition=0
attr measurement ""
attr network WSN
attr processid 4817
attr repetition 0
attr replication #0
attr resultdir results
attr runnumber 0
attr seedset 0

vector 3  WSN.statistic  sensorEnergy:vector  ETV
attr title  "Sensor energy, vector"
vector 4  WSN.statistic  sensorEnergyLevel:vector  ETV
attr title  "Sensor energy (level), vector"
3	15677451	3540	3.1989480394468
3	15677451	3540	3.1990981215091
3	15677451	3540	3.1579428435776
3	15677451	3540	3.1567435311871
3	15677451	3540	3.1511487683254
3	15677451	3540	3.1177993234373
3	15677451	3540	3.1471498602275
3	15677451	3540	3.156460345197
3	15677451	3540	3.157915563042
3	15677451	3540	3.1583585760499
3	15677451	3540	3.1510184090737
3	15677451	3540	3.1620059975739
3	15677451	3540	3.1636800781529
3	15677451	3540	3.1587293881262
3	15677451	3540	3.1595179627305
3	15677451	3540	3.156230215267
3	15677451	3540	3.1409528702139
3	15677451	3540	3.1324696889504
3	15677451	3540	3.1532946451313
3	15677451	3540	3.1527894286714
3	15677451	3540	3.1532489096707
3	15677451	3540	3.1533926012252
3	15677451	3540	3.153180600975
3	15677451	3540	3.1517016416232
3	15677451	3540	3.1633465697966
3	15677451	3540	3.1633467055989
3	15677451	3540	3.1589447318272
3	15677451	3540	3.1556718418093
3	15677451	3540	3.1432991685075
3	15677451	3540	3.1440825774389
3	15677451	3540	3.1429542104747
3	15677451	3540	3.1431935651955
3	15677451	3540	3.1444100070779
3	15677451	3540	3.1443593979003
3	15677451	3540	3.1535040345257
3	15677451	3540	3.1526327239738
3	15677451	3540	3.1636642574039
3	15677451	3540	3.1633200394461
3	15677451	3540	3.1552168159027
3	15677451	3540	3.1468988506402
3	15677451	3540	3.1599259073204
3	15677451	3540	3.1444786871715
3	15677451	3540	3.1533961207386
3	15677451	3540	3.1526250746391
3	15677451	3540	3.1585692890206
3	15677451	3540	3.1452461871314
3	15677451	3540	3.1527666496333
3	15677451	3540	3.1613128391692
3	15677451	3540	3.1629783098503
3	15677451	3540	3.2022323908326
3	15677451	3540	3.1569053362509
3	15677451	3540	3.1499738815076
3	15677451	3540	3.1599464276131
3	15677451	3540	3.1533356283651
3	15677451	3540	3.1476856926117
3	15677451	3540	3.1548032782718
3	15677451	3540	3.1586630241816
3	15677451	3540	3.1463386076872
3	15677451	3540	3.1532277148592
3	15677451	3540	3.1621818112126
3	15677451	3540	3.1630469489723
3	15677451	3540	3.1982299043795
3	15677451	3540	3.156418583812
3	15677451	3540	3.1504346272671
3	15677451	3540	3.161902797796
3	15677451	3540	3.1538259012246
3	15677451	3540	3.1482569149406
3	15677451	3540	3.1525963608259
3	15677451	3540	3.162994146878
3	15677451	3540	3.1528676645102
3	15677451	3540	3.1477381604636
3	15677451	3540	3.1532119543181
3	15677451	3540	3.1630891880776
3	15677451	3540	3.1563723165216
3	15677451	3540	3.1532726306487
3	15677451	3540	3.1542747063933
3	15677451	3540	3.1629835880184
3	15677451	3540	3.1542195063581
3	15677451	3540	3.1505749233275
3	15677451	3540	3.1533420935587
3	15677451	3540	3.1630997483665
3	15677451	3540	3.1581325188252
3	15677451	3540	3.147621226321
3	15677451	3540	3.1581291181752
3	15677451	3540	3.163120865311
3	15677451	3540	3.1565127011118
3	15677451	3540	3.1544462253223
3	15677451	3540	3.1549854050129
3	15677451	3540	3.1629941491237
3	15677451	3540	3.1544086616681
3	15677451	3540	3.1515084755094
3	15677451	3540	3.153562332668
3	15677451	3540	3.1629413475449
3	15677451	3540	3.1550049124764
3	15677451	3540	3.1567216885251
3	15677451	3540	3.1579324750247
3	15677451	3540	3.1630469480542
3	15677451	3540	3.1569174956116
3	15677451	3540	3.1547405197123
3	15677451	3540	3.1574663350262
3	15677451	3540	3.1600490283915
3	15677451	3540	3.1519611567192
3	15677451	3540	3.1547881105176
3	15677451	3540	3.1542657057342
3	15677451	3540	3.1629519084113
3	15677451	3540	3.1564082439897
3	15677451	3540	3.1569581422379
3	15677451	3540	3.1601544468946
3	15677451	3540	3.1631525475139
3	15677451	3540	3.1587220532252
3	15677451	3540	3.1589947003246
3	15677451	3540	3.1673107310852
3	15677451	3540	3.1631367087131
3	15677451	3540	3.1547006633932
3	15677451	3540	3.1513031956924
3	15677451	3540	3.1516231687522
3	15677451	3540	3.1629677462645
3	15677451	3540	3.1567730321942
3	15677451	3540	3.1577321558192
3	15677451	3540	3.2010326492861
3	15677451	3540	3.1630627865373
3	15677451	3540	3.1587894368219
3	15677451	3540	3.1593146110342
3	15677451	3540	3.1675527112838
3	15677451	3540	3.1631419861454
3	15677451	3540	3.1526271616455
3	15677451	3540	3.1516098362015
3	15677451	3540	3.1521787039517
3	15677451	3540	3.1575280221002
3	15677451	3540	3.1569623593204
3	15677451	3540	3.1579192377774
3	15677451	3540	3.1581680276966
3	15677451	3540	3.1630627869485
3	15677451	3540	3.1630680667153
3	15677451	3540	3.1806680538829
3	15677451	3540	3.1804640071827
3	15677451	3540	3.16318950658
3	15677451	3540	3.2362077771421
3	15677451	3540	3.1532861061955
3	15677451	3540	3.1524942092514
3	15677451	3540	3.1575280220999
3	15677451	3540	3.158132845679
3	15677451	3540	3.1577793106278
3	15677451	3540	3.1581529989471
4	15677451	3540	35
4	15677451	3540	35
4	15677451	3540	35
4	15677451	3540	35
4	15677451	3540	35
4	15677451	3540	34
4	15677451	3540	34
4	15677451	3540	35
4	15677451	3540	35
4	15677451	3540	35
4	15677451	3540	35
4	15677451	3540	35
4	15677451	3540	35
4	15677451	3540	35
4	15677451	3540	35
4	15677451	3540	35
4	15677451	3540	34
4	15677451	3540	34
4	15677451	3540	35
4	15677451	3540	35
4	15677451	3540	35
4	15677451	3540	35
4	15677451	3540	35
4	15677451	3540	35
4	15677451	3540	35
4	15677451	3540	35
4	15677451	3540	35
4	15677451	3540	35
4	15677451	3540	34
4	15677451	3540	34
4	15677451	3540	34
4	15677451	3540	34
4	15677451	3540	34
4	15677451	3540	34
4	15677451	3540	35
4	15677451	3540	35
4	15677451	3540	35
4	15677451	3540	35
4	15677451	3540	35
4	15677451	3540	34
4	15677451	3540	35
4	15677451	3540	34
4	15677451	3540	35
4	15677451	3540	35
4	15677451	3540	35
4	15677451	3540	34
4	15677451	3540	35
4	15677451	3540	35
4	15677451	3540	35
4	15677451	3540	35
4	15677451	3540	35
4	15677451	3540	34
4	15677451	3540	35
4	15677451	3540	35
4	15677451	3540	34
4	15677451	3540	35
4	15677451	3540	35
4	15677451	3540	34
4	15677451	3540	35
4	15677451	3540	35
4	15677451	3540	35
4	15677451	3540	35
4	15677451	3540	35
4	15677451	3540	35
4	15677451	3540	35
4	15677451	3540	35
4	15677451	3540	34
4	15677451	3540	35
4	15677451	3540	35
4	15677451	3540	35
4	15677451	3540	34
4	15677451	3540	35
4	15677451	3540	35
4	15677451	3540	35
4	15677451	3540	35
4	15677451	3540	35
4	15677451	3540	35
4	15677451	3540	35
4	15677451	3540	35
4	15677451	3540	35
4	15677451	3540	35
4	15677451	3540	35
4	15677451	3540	34
4	15677451	3540	35
4	15677451	3540	35
4	15677451	3540	35
4	15677451	3540	35
4	15677451	3540	35
4	15677451	3540	35
4	15677451	3540	35
4	15677451	3540	35
4	15677451	3540	35
4	15677451	3540	35
4	15677451	3540	35
4	15677451	3540	35
4	15677451	3540	35
4	15677451	3540	35
4	15677451	3540	35
4	15677451	3540	35
4	15677451	3540	35
4	15677451	3540	35
4	15677451	3540	35
4	15677451	3540	35
4	15677451	3540	35
4	15677451	3540	35
4	15677451	3540	35
4	15677451	3540	35
4	15677451	3540	35
4	15677451	3540	35
4	15677451	3540	35
4	15677451	3540	35
4	15677451	3540	35
4	15677451	3540	35
4	15677451	3540	35
4	15677451	3540	35
4	15677451	3540	35
4	15677451	3540	35
4	15677451	3540	35
4	15677451	3540	35
4	15677451	3540	35
4	15677451	3540	35
4	15677451	3540	35
4	15677451	3540	35
4	15677451	3540	35
4	15677451	3540	35
4	15677451	3540	35
4	15677451	3540	35
4	15677451	3540	35
4	15677451	3540	35
4	15677451	3540	35
4	15677451	3540	35
4	15677451	3540	35
4	15677451	3540	35
4	15677451	3540	35
4	15677451	3540	35
4	15677451	3540	35
4	15677451	3540	35
4	15677451	3540	35
4	15677451	3540	35
4	15677451	3540	35
4	15677451	3540	35
4	15677451	3540	35
4	15677451	3540	35
4	15677451	3540	35
