version 2
run ExperimentLarge-0-20150508-11:04:56-7104
attr configname ExperimentLarge
attr datetime 20150508-11:04:56
attr experiment ExperimentLarge
attr inifile omnetpp.ini
attr iterationvars ""
attr iterationvars2 $repetition=0
attr measurement ""
attr network WSN
attr processid 7104
attr repetition 0
attr replication #0
attr resultdir results
attr runnumber 0
attr seedset 0

vector 3  WSN.statistic  sensorEnergy:vector  ETV
attr title  "Sensor energy, vector"
vector 4  WSN.statistic  sensorEnergyLevel:vector  ETV
attr title  "Sensor energy (level), vector"
3	66396891	1140	6.8309782484241
3	66396891	1140	6.8285423371414
3	66396891	1140	6.815109678402
3	66396891	1140	6.816335001996
3	66396891	1140	6.8196628006901
3	66396891	1140	6.8125552420234
3	66396891	1140	6.8141745530949
3	66396891	1140	6.8305395374425
3	66396891	1140	6.8182740187377
3	66396891	1140	6.8262904163184
3	66396891	1140	6.8889415854564
3	66396891	1140	6.9028484367251
3	66396891	1140	6.8890488635753
3	66396891	1140	6.8914910002855
3	66396891	1140	6.898903522126
3	66396891	1140	6.9012683287719
3	66396891	1140	6.8939580398229
3	66396891	1140	6.9066604801236
3	66396891	1140	6.892066054338
3	66396891	1140	6.8911395909842
3	66396891	1140	6.8941226139756
3	66396891	1140	6.9028275475684
3	66396891	1140	6.8995616884255
3	66396891	1140	6.8957280870252
3	66396891	1140	6.9000759934251
3	66396891	1140	6.8935253476766
3	66396891	1140	6.8947431450253
3	66396891	1140	6.8918199665273
3	66396891	1140	6.8768829632528
3	66396891	1140	6.8904666999318
3	66396891	1140	6.8897429129779
3	66396891	1140	6.8861555550621
3	66396891	1140	6.8349674414071
3	66396891	1140	6.7076449384551
3	66396891	1140	6.8945733660369
3	66396891	1140	6.8908955644773
3	66396891	1140	6.8738888654294
3	66396891	1140	6.8791128726798
3	66396891	1140	6.8637299018422
3	66396891	1140	6.8735389252982
3	66396891	1140	6.8897794445285
3	66396891	1140	6.8851767260765
3	66396891	1140	6.8787086089293
3	66396891	1140	6.8766092941279
3	66396891	1140	6.8884381247414
3	66396891	1140	6.8530956330798
3	66396891	1140	6.8464000067572
3	66396891	1140	6.816991473708
3	66396891	1140	6.858202895067
3	66396891	1140	6.8609729992779
3	66396891	1140	6.842803377536
3	66396891	1140	6.8613105535285
3	66396891	1140	6.8650074771008
3	66396891	1140	6.8513736584316
3	66396891	1140	6.8412010923287
3	66396891	1140	6.8449405468392
3	66396891	1140	6.8652691444268
3	66396891	1140	6.8462473892157
3	66396891	1140	6.8310532287684
3	66396891	1140	6.8532142172501
3	66396891	1140	6.8524700091774
3	66396891	1140	6.8362280069025
3	66396891	1140	6.8601435000718
3	66396891	1140	6.8625319169546
3	66396891	1140	6.8678801961505
3	66396891	1140	6.8585968831059
3	66396891	1140	6.8692788984679
3	66396891	1140	6.8750769269044
3	66396891	1140	6.8762806970523
3	66396891	1140	6.8708420869541
3	66396891	1140	6.8736930312024
3	66396891	1140	6.8782390903037
4	66396891	1140	75
4	66396891	1140	75
4	66396891	1140	75
4	66396891	1140	75
4	66396891	1140	75
4	66396891	1140	75
4	66396891	1140	75
4	66396891	1140	75
4	66396891	1140	75
4	66396891	1140	75
4	66396891	1140	76
4	66396891	1140	76
4	66396891	1140	76
4	66396891	1140	76
4	66396891	1140	76
4	66396891	1140	76
4	66396891	1140	76
4	66396891	1140	76
4	66396891	1140	76
4	66396891	1140	76
4	66396891	1140	76
4	66396891	1140	76
4	66396891	1140	76
4	66396891	1140	76
4	66396891	1140	76
4	66396891	1140	76
4	66396891	1140	76
4	66396891	1140	76
4	66396891	1140	76
4	66396891	1140	76
4	66396891	1140	76
4	66396891	1140	76
4	66396891	1140	75
4	66396891	1140	74
4	66396891	1140	76
4	66396891	1140	76
4	66396891	1140	76
4	66396891	1140	76
4	66396891	1140	76
4	66396891	1140	76
4	66396891	1140	76
4	66396891	1140	76
4	66396891	1140	76
4	66396891	1140	76
4	66396891	1140	76
4	66396891	1140	76
4	66396891	1140	76
4	66396891	1140	75
4	66396891	1140	76
4	66396891	1140	76
4	66396891	1140	76
4	66396891	1140	76
4	66396891	1140	76
4	66396891	1140	76
4	66396891	1140	76
4	66396891	1140	76
4	66396891	1140	76
4	66396891	1140	76
4	66396891	1140	75
4	66396891	1140	76
4	66396891	1140	76
4	66396891	1140	75
4	66396891	1140	76
4	66396891	1140	76
4	66396891	1140	76
4	66396891	1140	76
4	66396891	1140	76
4	66396891	1140	76
4	66396891	1140	76
4	66396891	1140	76
4	66396891	1140	76
4	66396891	1140	76
