version 2
run ExperimentLarge-0-20150519-11:08:01-188
attr configname ExperimentLarge
attr datetime 20150519-11:08:01
attr experiment ExperimentLarge
attr inifile omnetpp.ini
attr iterationvars ""
attr iterationvars2 $repetition=0
attr measurement ""
attr network WSN
attr processid 188
attr repetition 0
attr replication #0
attr resultdir results
attr runnumber 0
attr seedset 0

vector 3  WSN.statistic  sensorEnergy:vector  ETV
attr title  "Sensor energy, vector"
vector 4  WSN.statistic  sensorEnergyLevel:vector  ETV
attr title  "Sensor energy (level), vector"
3	84794162	1140	6.8443662480275
3	84794162	1140	6.8438805831788
3	84794162	1140	6.8350468400207
3	84794162	1140	6.8305171611324
3	84794162	1140	6.8328509482129
3	84794162	1140	6.8348104440808
3	84794162	1140	6.8284081447824
3	84794162	1140	6.8246923830094
3	84794162	1140	6.8298521979337
3	84794162	1140	6.8245211252999
3	84794162	1140	6.9040044330568
3	84794162	1140	6.9047305322139
3	84794162	1140	6.9018841689121
3	84794162	1140	6.9062284396146
3	84794162	1140	6.8936650008199
3	84794162	1140	6.9086842198626
3	84794162	1140	6.9020044647709
3	84794162	1140	6.9073578789142
3	84794162	1140	6.8989189487273
3	84794162	1140	6.8958648765168
3	84794162	1140	6.8951058908174
3	84794162	1140	6.8872581553148
3	84794162	1140	6.8900083445742
3	84794162	1140	6.8995329365147
3	84794162	1140	6.8965830319892
3	84794162	1140	6.8979657907139
3	84794162	1140	6.9066852833654
3	84794162	1140	6.8985714336682
3	84794162	1140	6.8960049439151
3	84794162	1140	6.8956843016141
3	84794162	1140	6.9049978767674
3	84794162	1140	6.8814735974189
3	84794162	1140	6.6075337008242
3	84794162	1140	6.8892382422157
3	84794162	1140	6.8964890390676
3	84794162	1140	6.8843452898092
3	84794162	1140	6.8878379213181
3	84794162	1140	6.8922043326284
3	84794162	1140	6.8755694552174
3	84794162	1140	6.8758711313194
3	84794162	1140	6.8806276880704
3	84794162	1140	6.8993833046162
3	84794162	1140	6.8740879152699
3	84794162	1140	6.864907970321
3	84794162	1140	6.8928364791667
3	84794162	1140	6.8740458319326
3	84794162	1140	6.8567057284668
3	84794162	1140	6.8558276776679
3	84794162	1140	6.8775070015726
3	84794162	1140	6.8781055327162
3	84794162	1140	6.8642141095664
3	84794162	1140	6.8592951909029
3	84794162	1140	6.8744644381174
3	84794162	1140	6.8620541764351
3	84794162	1140	6.8410911509406
3	84794162	1140	6.8484759239176
3	84794162	1140	6.7239650344449
3	84794162	1140	6.8455023556209
3	84794162	1140	6.841625530291
3	84794162	1140	6.8442361829192
3	84794162	1140	6.8726306042358
3	84794162	1140	6.8607482609193
3	84794162	1140	6.8540749002663
3	84794162	1140	6.8877379351642
3	84794162	1140	6.8733787026548
3	84794162	1140	6.8622452635664
3	84794162	1140	6.8682372303136
3	84794162	1140	6.8731277346126
3	84794162	1140	6.8772892150145
3	84794162	1140	6.8794986695128
3	84794162	1140	6.882579281113
3	84794162	1140	6.8849985324122
4	84794162	1140	76
4	84794162	1140	76
4	84794162	1140	75
4	84794162	1140	75
4	84794162	1140	75
4	84794162	1140	75
4	84794162	1140	75
4	84794162	1140	75
4	84794162	1140	75
4	84794162	1140	75
4	84794162	1140	76
4	84794162	1140	76
4	84794162	1140	76
4	84794162	1140	76
4	84794162	1140	76
4	84794162	1140	76
4	84794162	1140	76
4	84794162	1140	76
4	84794162	1140	76
4	84794162	1140	76
4	84794162	1140	76
4	84794162	1140	76
4	84794162	1140	76
4	84794162	1140	76
4	84794162	1140	76
4	84794162	1140	76
4	84794162	1140	76
4	84794162	1140	76
4	84794162	1140	76
4	84794162	1140	76
4	84794162	1140	76
4	84794162	1140	76
4	84794162	1140	73
4	84794162	1140	76
4	84794162	1140	76
4	84794162	1140	76
4	84794162	1140	76
4	84794162	1140	76
4	84794162	1140	76
4	84794162	1140	76
4	84794162	1140	76
4	84794162	1140	76
4	84794162	1140	76
4	84794162	1140	76
4	84794162	1140	76
4	84794162	1140	76
4	84794162	1140	76
4	84794162	1140	76
4	84794162	1140	76
4	84794162	1140	76
4	84794162	1140	76
4	84794162	1140	76
4	84794162	1140	76
4	84794162	1140	76
4	84794162	1140	76
4	84794162	1140	76
4	84794162	1140	74
4	84794162	1140	76
4	84794162	1140	76
4	84794162	1140	76
4	84794162	1140	76
4	84794162	1140	76
4	84794162	1140	76
4	84794162	1140	76
4	84794162	1140	76
4	84794162	1140	76
4	84794162	1140	76
4	84794162	1140	76
4	84794162	1140	76
4	84794162	1140	76
4	84794162	1140	76
4	84794162	1140	76
