version 2
run ExperimentLarge-0-20150519-10:47:36-2840
attr configname ExperimentLarge
attr datetime 20150519-10:47:36
attr experiment ExperimentLarge
attr inifile omnetpp.ini
attr iterationvars ""
attr iterationvars2 $repetition=0
attr measurement ""
attr network WSN
attr processid 2840
attr repetition 0
attr replication #0
attr resultdir results
attr runnumber 0
attr seedset 0

vector 3  WSN.statistic  sensorEnergy:vector  ETV
attr title  "Sensor energy, vector"
vector 4  WSN.statistic  sensorEnergyLevel:vector  ETV
attr title  "Sensor energy (level), vector"
3	80841099	1140	6.8575726748694
3	80841099	1140	6.8336787097247
3	80841099	1140	6.8581305926682
3	80841099	1140	6.8409595338222
3	80841099	1140	6.8495343764691
3	80841099	1140	6.85195736407
3	80841099	1140	6.840153643159
3	80841099	1140	6.8514910779196
3	80841099	1140	6.8461279522384
3	80841099	1140	7.1192737952774
3	80841099	1140	6.9040598139172
3	80841099	1140	6.905415797655
3	80841099	1140	6.9029346915545
3	80841099	1140	6.8962565811057
3	80841099	1140	6.9042128286316
3	80841099	1140	6.9043981297992
3	80841099	1140	6.9066653943539
3	80841099	1140	6.9171489978262
3	80841099	1140	6.8599032226741
3	80841099	1140	6.8905967896082
3	80841099	1140	6.9057531231045
3	80841099	1140	6.9055201722547
3	80841099	1140	6.9124321823054
3	80841099	1140	6.8985466714011
3	80841099	1140	6.9029514599547
3	80841099	1140	6.9194706164541
3	80841099	1140	6.8903791135194
3	80841099	1140	6.9045734957268
3	80841099	1140	6.9050474942361
3	80841099	1140	6.9084762407572
3	80841099	1140	6.8885952686542
3	80841099	1140	6.8994539005091
3	80841099	1140	6.6488091942243
3	80841099	1140	6.9084169029066
3	80841099	1140	6.8944283382084
3	80841099	1140	6.8943739801975
3	80841099	1140	6.8915108550284
3	80841099	1140	6.8961112122574
3	80841099	1140	6.8923281377053
3	80841099	1140	6.8860016535004
3	80841099	1140	6.8877609901585
3	80841099	1140	6.8889501177208
3	80841099	1140	6.8793331900039
3	80841099	1140	6.8896987930574
3	80841099	1140	6.8878217013585
3	80841099	1140	6.8707728628287
3	80841099	1140	6.8834209077083
3	80841099	1140	6.8729782594886
3	80841099	1140	6.8781354005593
3	80841099	1140	6.891137430808
3	80841099	1140	6.8576622174124
3	80841099	1140	6.8646754183119
3	80841099	1140	6.8725243709575
3	80841099	1140	6.8660322610913
3	80841099	1140	6.8569698393795
3	80841099	1140	6.8491947223496
3	80841099	1140	6.8623554490091
3	80841099	1140	6.8678126051096
3	80841099	1140	6.7354818835247
3	80841099	1140	6.8584631045077
3	80841099	1140	6.86199103551
3	80841099	1140	6.8755165656569
3	80841099	1140	6.8676171609576
3	80841099	1140	6.8905577931694
3	80841099	1140	6.8778506647885
3	80841099	1140	6.8664908690906
3	80841099	1140	6.8878154797442
3	80841099	1140	6.8897205854879
3	80841099	1140	6.8908045656384
3	80841099	1140	6.8808285033904
3	80841099	1140	6.8876605027382
3	80841099	1140	6.8897999499747
4	80841099	1140	76
4	80841099	1140	75
4	80841099	1140	76
4	80841099	1140	76
4	80841099	1140	76
4	80841099	1140	76
4	80841099	1140	76
4	80841099	1140	76
4	80841099	1140	76
4	80841099	1140	79
4	80841099	1140	76
4	80841099	1140	76
4	80841099	1140	76
4	80841099	1140	76
4	80841099	1140	76
4	80841099	1140	76
4	80841099	1140	76
4	80841099	1140	76
4	80841099	1140	76
4	80841099	1140	76
4	80841099	1140	76
4	80841099	1140	76
4	80841099	1140	76
4	80841099	1140	76
4	80841099	1140	76
4	80841099	1140	76
4	80841099	1140	76
4	80841099	1140	76
4	80841099	1140	76
4	80841099	1140	76
4	80841099	1140	76
4	80841099	1140	76
4	80841099	1140	73
4	80841099	1140	76
4	80841099	1140	76
4	80841099	1140	76
4	80841099	1140	76
4	80841099	1140	76
4	80841099	1140	76
4	80841099	1140	76
4	80841099	1140	76
4	80841099	1140	76
4	80841099	1140	76
4	80841099	1140	76
4	80841099	1140	76
4	80841099	1140	76
4	80841099	1140	76
4	80841099	1140	76
4	80841099	1140	76
4	80841099	1140	76
4	80841099	1140	76
4	80841099	1140	76
4	80841099	1140	76
4	80841099	1140	76
4	80841099	1140	76
4	80841099	1140	76
4	80841099	1140	76
4	80841099	1140	76
4	80841099	1140	74
4	80841099	1140	76
4	80841099	1140	76
4	80841099	1140	76
4	80841099	1140	76
4	80841099	1140	76
4	80841099	1140	76
4	80841099	1140	76
4	80841099	1140	76
4	80841099	1140	76
4	80841099	1140	76
4	80841099	1140	76
4	80841099	1140	76
4	80841099	1140	76
