version 2
run ExperimentLarge-0-20150508-11:54:17-8096
attr configname ExperimentLarge
attr datetime 20150508-11:54:17
attr experiment ExperimentLarge
attr inifile omnetpp.ini
attr iterationvars ""
attr iterationvars2 $repetition=0
attr measurement ""
attr network WSN
attr processid 8096
attr repetition 0
attr replication #0
attr resultdir results
attr runnumber 0
attr seedset 0

vector 3  WSN.statistic  sensorEnergy:vector  ETV
attr title  "Sensor energy, vector"
vector 4  WSN.statistic  sensorEnergyLevel:vector  ETV
attr title  "Sensor energy (level), vector"
3	63982203	1140	6.8464331778303
3	63982203	1140	6.8294502279291
3	63982203	1140	6.8246164499343
3	63982203	1140	6.8202978224611
3	63982203	1140	6.8289112849838
3	63982203	1140	7.1192672970431
3	63982203	1140	6.824254053301
3	63982203	1140	6.8390528515824
3	63982203	1140	6.8379964555831
3	63982203	1140	7.1192672970434
3	63982203	1140	6.8939530843192
3	63982203	1140	6.8976431965676
3	63982203	1140	6.8937380601673
3	63982203	1140	6.9018648200178
3	63982203	1140	6.8910729977692
3	63982203	1140	6.8931209228363
3	63982203	1140	6.9110504998166
3	63982203	1140	6.9020705816172
3	63982203	1140	6.8895652415207
3	63982203	1140	6.8945241537215
3	63982203	1140	7.1192672970444
3	63982203	1140	6.8943496855541
3	63982203	1140	6.8894147930853
3	63982203	1140	6.8800329158044
3	63982203	1140	6.893789824008
3	63982203	1140	6.8858060529844
3	63982203	1140	6.8999607882195
3	63982203	1140	6.8998609555208
3	63982203	1140	6.8834363674843
3	63982203	1140	6.8775313174829
3	63982203	1140	6.8873144061236
3	63982203	1140	6.8893960846201
3	63982203	1140	6.6772406058969
3	63982203	1140	6.8943936931699
3	63982203	1140	6.8940435644092
3	63982203	1140	6.8837710745726
3	63982203	1140	6.8828243750579
3	63982203	1140	6.8740108998745
3	63982203	1140	6.8670916980756
3	63982203	1140	6.8557023308243
3	63982203	1140	6.8703516679752
3	63982203	1140	6.8738879215761
3	63982203	1140	6.8629463200253
3	63982203	1140	6.8761028216255
3	63982203	1140	6.8853505551768
3	63982203	1140	6.8684828730267
3	63982203	1140	6.8596113411262
3	63982203	1140	6.8596403237168
3	63982203	1140	6.8665842752264
3	63982203	1140	6.867489288983
3	63982203	1140	6.8232992757319
3	63982203	1140	6.8524454510771
3	63982203	1140	6.8656580608403
3	63982203	1140	6.8209795060187
3	63982203	1140	6.8454658722887
3	63982203	1140	6.8488425424272
3	63982203	1140	6.8422580227945
3	63982203	1140	6.8619217551487
3	63982203	1140	6.8531715275246
3	63982203	1140	6.847054274076
3	63982203	1140	6.8392849789281
3	63982203	1140	6.8614322118256
3	63982203	1140	6.8489936271415
3	63982203	1140	6.8608139397734
3	63982203	1140	6.8648906376081
3	63982203	1140	6.8613211134732
3	63982203	1140	6.8626292763717
3	63982203	1140	6.8717093402216
3	63982203	1140	6.862638241921
3	63982203	1140	6.8745536151728
3	63982203	1140	6.8692379190711
3	63982203	1140	6.8791329756709
4	63982203	1140	76
4	63982203	1140	75
4	63982203	1140	75
4	63982203	1140	75
4	63982203	1140	75
4	63982203	1140	79
4	63982203	1140	75
4	63982203	1140	75
4	63982203	1140	75
4	63982203	1140	79
4	63982203	1140	76
4	63982203	1140	76
4	63982203	1140	76
4	63982203	1140	76
4	63982203	1140	76
4	63982203	1140	76
4	63982203	1140	76
4	63982203	1140	76
4	63982203	1140	76
4	63982203	1140	76
4	63982203	1140	79
4	63982203	1140	76
4	63982203	1140	76
4	63982203	1140	76
4	63982203	1140	76
4	63982203	1140	76
4	63982203	1140	76
4	63982203	1140	76
4	63982203	1140	76
4	63982203	1140	76
4	63982203	1140	76
4	63982203	1140	76
4	63982203	1140	74
4	63982203	1140	76
4	63982203	1140	76
4	63982203	1140	76
4	63982203	1140	76
4	63982203	1140	76
4	63982203	1140	76
4	63982203	1140	76
4	63982203	1140	76
4	63982203	1140	76
4	63982203	1140	76
4	63982203	1140	76
4	63982203	1140	76
4	63982203	1140	76
4	63982203	1140	76
4	63982203	1140	76
4	63982203	1140	76
4	63982203	1140	76
4	63982203	1140	75
4	63982203	1140	76
4	63982203	1140	76
4	63982203	1140	75
4	63982203	1140	76
4	63982203	1140	76
4	63982203	1140	76
4	63982203	1140	76
4	63982203	1140	76
4	63982203	1140	76
4	63982203	1140	75
4	63982203	1140	76
4	63982203	1140	76
4	63982203	1140	76
4	63982203	1140	76
4	63982203	1140	76
4	63982203	1140	76
4	63982203	1140	76
4	63982203	1140	76
4	63982203	1140	76
4	63982203	1140	76
4	63982203	1140	76
