version 2
run General-0-20140524-22:00:04-3803
attr configname General
attr datetime 20140524-22:00:04
attr experiment General
attr inifile omnetpp.ini
attr iterationvars ""
attr iterationvars2 $repetition=0
attr measurement ""
attr network WSN
attr processid 3803
attr repetition 0
attr replication #0
attr resultdir results
attr runnumber 0
attr seedset 0

vector 2  WSN.statistic  networkEnergy:vector  ETV
attr title  "Node energy, vector"
vector 3  WSN.statistic  sensorEnergy:vector  ETV
attr title  "Sensor energy, vector"
vector 4  WSN.statistic  sensorEnergyLevel:vector  ETV
attr title  "Sensor energy (level), vector"
2	146	0	1296
2	1184720	60	1281.6210227643
2	2414991	120	1267.2357306096
2	3189767	180	1252.9017471278
2	3828411	240	1238.5831887181
2	4330216	300	1224.2799343303
2	4730199	360	1209.988288122
2	5144015	420	1195.6952796214
2	5508073	480	1181.4070616412
2	5852936	540	1167.1214159614
2	6157579	600	1152.8405629728
2	6443865	660	1138.5616186138
2	6715627	720	1124.2836576109
2	6989191	780	1110.0058054357
2	7257104	840	1095.7286666664
2	7528852	900	1081.4514128729
2	7784178	960	1067.1756612977
2	8026373	1020	1052.9010762235
2	8264622	1080	1038.6273139323
2	8491002	1140	1024.35472896
2	8696904	1200	1010.0846543225
2	8911307	1260	995.8133534232
2	9118215	1320	981.5428603435
2	9318083	1380	967.27359307777
2	9529560	1440	953.00280884128
2	9740386	1500	938.73229253288
2	9939777	1560	924.46281285601
2	10149159	1620	910.19252077369
2	10341077	1680	895.9238550778
2	10550593	1740	881.65346389881
2	10747968	1800	867.38413971047
2	10953274	1860	853.11422401066
2	11153437	1920	838.84445100859
2	11342024	1980	824.5757922185
2	11528427	2040	810.30757673077
2	11721679	2100	796.03892746999
2	11905243	2160	781.77121743101
2	12083503	2220	767.50436163616
2	12266625	2280	753.23653907472
2	12443943	2340	738.96966781325
2	12618987	2400	724.70270539751
2	12787278	2460	710.43662447576
2	12957796	2520	696.17036699975
2	13129292	2580	681.9042250036
2	13289209	2640	667.63908384487
2	13471529	2700	653.37153277659
2	13645191	2760	639.10508187789
2	13791275	2820	624.84139570654
2	13970487	2880	610.57415979374
2	14141378	2940	596.30783654509
2	14313577	3000	582.04158800285
2	14481775	3060	567.775668705
2	14650907	3120	553.50969087671
2	14827162	3180	539.24281229637
2	14996982	3240	524.97676404552
2	15152400	3300	510.71214879438
2	15322180	3360	496.44585041054
2	15497470	3420	482.17905643504
2	15662728	3480	467.91338681675
3	15984103	3600	3.0857992110624
3	15984103	3600	3.0854391898621
3	15984103	3600	3.0847927571946
3	15984103	3600	3.0841100410533
3	15984103	3600	3.082407468663
3	15984103	3600	3.0585739134448
3	15984103	3600	3.0693618378636
3	15984103	3600	3.0799599825448
3	15984103	3600	3.0848455364047
3	15984103	3600	3.086129639605
3	15984103	3600	3.0870563351838
3	15984103	3600	3.0878440880837
3	15984103	3600	3.0856411592115
3	15984103	3600	3.0741660292754
3	15984103	3600	3.0844796289519
3	15984103	3600	3.0841277328567
3	15984103	3600	3.0705914512703
3	15984103	3600	3.0737007066607
3	15984103	3600	3.0722568007589
3	15984103	3600	3.084155663009
3	15984103	3600	3.0866514410531
3	15984103	3600	3.0876540289829
3	15984103	3600	3.0873353171819
3	15984103	3600	3.0879811992326
3	15984103	3600	3.0753248875265
3	15984103	3600	3.0747538335265
3	15984103	3600	3.0747257032259
3	15984103	3600	3.0854260618011
3	15984103	3600	3.0734852922903
3	15984103	3600	3.0827085043952
3	15984103	3600	3.0682251287942
3	15984103	3600	3.084543568944
3	15984103	3600	3.0851251837913
3	15984103	3600	3.0568239504056
3	15984103	3600	3.0858839035255
3	15984103	3600	3.1108770595352
3	15984103	3600	3.1099483249448
3	15984103	3600	3.0746216762255
3	15984103	3600	3.0864023515003
3	15984103	3600	3.0775330750944
3	15984103	3600	3.0859393266357
3	15984103	3600	3.0826126135452
3	15984103	3600	3.0848263822443
3	15984103	3600	3.0701246103367
3	15984103	3600	3.0480527531507
3	15984103	3600	3.048301098622
3	15984103	3600	3.0562625296558
3	15984103	3600	3.0859076343761
3	15984103	3600	3.0640865589318
3	15984103	3600	3.0866388594003
3	15984103	3600	3.082248222402
3	15984103	3600	3.0841781978563
3	15984103	3600	3.0641974380906
3	15984103	3600	3.0883818099003
3	15984103	3600	3.0848519102934
3	15984103	3600	3.0822339427465
3	15984103	3600	3.0625758867034
3	15984103	3600	3.0500120843611
3	15984103	3600	3.077673189225
3	15984103	3600	3.0859310555761
3	15984103	3600	3.0640918380454
3	15984103	3600	3.0867395072016
3	15984103	3600	3.0851464184058
3	15984103	3600	3.0833376581572
3	15984103	3600	3.0640390396069
3	15984103	3600	3.0889340695761
3	15984103	3600	3.0897317760623
3	15984103	3600	3.0890134081772
3	15984103	3600	3.0641710383882
3	15984103	3600	3.0766466307257
3	15984103	3600	3.0725245935785
3	15984103	3600	3.0851397421152
3	15984103	3600	3.064107679736
3	15984103	3600	3.0871248539613
3	15984103	3600	3.0607202850812
3	15984103	3600	3.085468097212
3	15984103	3600	3.0640390384955
3	15984103	3600	3.0909164350138
3	15984103	3600	3.0893550263755
3	15984103	3600	3.0890625456152
3	15984103	3600	3.0640284795447
3	15984103	3600	3.0768999876763
3	15984103	3600	3.0809722656165
3	15984103	3600	3.0852775331324
3	15984103	3600	3.0639492799711
3	15984103	3600	3.0646044474293
3	15984103	3600	3.0618650970378
3	15984103	3600	3.0628825299794
3	15984103	3600	3.06408655823
3	15984103	3600	3.0910769865425
3	15984103	3600	3.0899880938637
3	15984103	3600	3.0896264335927
3	15984103	3600	3.0639809579441
3	15984103	3600	3.0841060457828
3	15984103	3600	3.0835435195327
3	15984103	3600	3.0849061742319
3	15984103	3600	3.064097117551
3	15984103	3600	3.0635751136285
3	15984103	3600	3.0629243167789
3	15984103	3600	3.0862596416084
3	15984103	3600	3.0639598389095
3	15984103	3600	3.0902577252424
3	15984103	3600	3.0912262366038
3	15984103	3600	3.0940941012342
3	15984103	3600	3.0639651182366
3	15984103	3600	3.0521884885392
3	15984103	3600	3.0510104622384
3	15984103	3600	3.0843162036445
3	15984103	3600	3.0641023977069
3	15984103	3600	3.0803564212733
3	15984103	3600	3.0859951152578
3	15984103	3600	3.0870700523066
3	15984103	3600	3.0641499205594
3	15984103	3600	3.0908700893176
3	15984103	3600	3.0903486007663
3	15984103	3600	3.0950484249338
3	15984103	3600	3.0576745636368
3	15984103	3600	3.0513817094889
3	15984103	3600	3.0523595368885
3	15984103	3600	3.0840961333059
3	15984103	3600	3.0640918381021
3	15984103	3600	3.0808442773234
3	15984103	3600	3.0806907376725
3	15984103	3600	3.0871174122555
3	15984103	3600	3.0640443187674
3	15984103	3600	3.0877658419792
3	15984103	3600	3.0911287760838
3	15984103	3600	3.1149961981571
3	15984103	3600	3.0640390393168
3	15984103	3600	3.0517243831387
3	15984103	3600	3.0944534265857
3	15984103	3600	3.0940532399863
3	15984103	3600	3.0640548774348
3	15984103	3600	3.0810807514738
3	15984103	3600	3.0875773784485
3	15984103	3600	3.0878688668988
3	15984103	3600	3.0640918391144
3	15984103	3600	3.0880292507299
3	15984103	3600	3.0875287452293
3	15984103	3600	3.1151831349062
3	15984103	3600	3.0640073588091
3	15984103	3600	3.0947156654873
3	15984103	3600	3.0943076600855
3	15984103	3600	3.0945126450868
4	15984103	3600	34
4	15984103	3600	34
4	15984103	3600	34
4	15984103	3600	34
4	15984103	3600	34
4	15984103	3600	33
4	15984103	3600	34
4	15984103	3600	34
4	15984103	3600	34
4	15984103	3600	34
4	15984103	3600	34
4	15984103	3600	34
4	15984103	3600	34
4	15984103	3600	34
4	15984103	3600	34
4	15984103	3600	34
4	15984103	3600	34
4	15984103	3600	34
4	15984103	3600	34
4	15984103	3600	34
4	15984103	3600	34
4	15984103	3600	34
4	15984103	3600	34
4	15984103	3600	34
4	15984103	3600	34
4	15984103	3600	34
4	15984103	3600	34
4	15984103	3600	34
4	15984103	3600	34
4	15984103	3600	34
4	15984103	3600	34
4	15984103	3600	34
4	15984103	3600	34
4	15984103	3600	33
4	15984103	3600	34
4	15984103	3600	34
4	15984103	3600	34
4	15984103	3600	34
4	15984103	3600	34
4	15984103	3600	34
4	15984103	3600	34
4	15984103	3600	34
4	15984103	3600	34
4	15984103	3600	34
4	15984103	3600	33
4	15984103	3600	33
4	15984103	3600	33
4	15984103	3600	34
4	15984103	3600	34
4	15984103	3600	34
4	15984103	3600	34
4	15984103	3600	34
4	15984103	3600	34
4	15984103	3600	34
4	15984103	3600	34
4	15984103	3600	34
4	15984103	3600	34
4	15984103	3600	33
4	15984103	3600	34
4	15984103	3600	34
4	15984103	3600	34
4	15984103	3600	34
4	15984103	3600	34
4	15984103	3600	34
4	15984103	3600	34
4	15984103	3600	34
4	15984103	3600	34
4	15984103	3600	34
4	15984103	3600	34
4	15984103	3600	34
4	15984103	3600	34
4	15984103	3600	34
4	15984103	3600	34
4	15984103	3600	34
4	15984103	3600	34
4	15984103	3600	34
4	15984103	3600	34
4	15984103	3600	34
4	15984103	3600	34
4	15984103	3600	34
4	15984103	3600	34
4	15984103	3600	34
4	15984103	3600	34
4	15984103	3600	34
4	15984103	3600	34
4	15984103	3600	34
4	15984103	3600	34
4	15984103	3600	34
4	15984103	3600	34
4	15984103	3600	34
4	15984103	3600	34
4	15984103	3600	34
4	15984103	3600	34
4	15984103	3600	34
4	15984103	3600	34
4	15984103	3600	34
4	15984103	3600	34
4	15984103	3600	34
4	15984103	3600	34
4	15984103	3600	34
4	15984103	3600	34
4	15984103	3600	34
4	15984103	3600	34
4	15984103	3600	34
4	15984103	3600	34
4	15984103	3600	33
4	15984103	3600	33
4	15984103	3600	34
4	15984103	3600	34
4	15984103	3600	34
4	15984103	3600	34
4	15984103	3600	34
4	15984103	3600	34
4	15984103	3600	34
4	15984103	3600	34
4	15984103	3600	34
4	15984103	3600	33
4	15984103	3600	33
4	15984103	3600	33
4	15984103	3600	34
4	15984103	3600	34
4	15984103	3600	34
4	15984103	3600	34
4	15984103	3600	34
4	15984103	3600	34
4	15984103	3600	34
4	15984103	3600	34
4	15984103	3600	34
4	15984103	3600	34
4	15984103	3600	33
4	15984103	3600	34
4	15984103	3600	34
4	15984103	3600	34
4	15984103	3600	34
4	15984103	3600	34
4	15984103	3600	34
4	15984103	3600	34
4	15984103	3600	34
4	15984103	3600	34
4	15984103	3600	34
4	15984103	3600	34
4	15984103	3600	34
4	15984103	3600	34
4	15984103	3600	34
