version 2
run General-0-20140630-03:34:39-4157
attr configname General
attr datetime 20140630-03:34:39
attr experiment General
attr inifile omnetpp.ini
attr iterationvars ""
attr iterationvars2 $repetition=0
attr measurement ""
attr network WSN
attr processid 4157
attr repetition 0
attr replication #0
attr resultdir results
attr runnumber 0
attr seedset 0

vector 3  WSN.statistic  sensorEnergy:vector  ETV
attr title  "Sensor energy, vector"
vector 4  WSN.statistic  sensorEnergyLevel:vector  ETV
attr title  "Sensor energy (level), vector"
3	15795845	3540	3.1679114486075
3	15795845	3540	3.1657190579267
3	15795845	3540	3.1573870023529
3	15795845	3540	3.1566124993624
3	15795845	3540	3.1489705414445
3	15795845	3540	3.1140187164693
3	15795845	3540	3.145496709976
3	15795845	3540	3.1463249318762
3	15795845	3540	3.1466363697116
3	15795845	3540	3.1503857942822
3	15795845	3540	3.1509651991464
3	15795845	3540	3.1517071013601
3	15795845	3540	3.1675288020568
3	15795845	3540	3.1576977672014
3	15795845	3540	3.1590614062598
3	15795845	3540	3.1575475856675
3	15795845	3540	3.1403375556211
3	15795845	3540	3.1309919530697
3	15795845	3540	3.1517640248728
3	15795845	3540	3.1513841606903
3	15795845	3540	3.1487550651821
3	15795845	3540	3.1496186741209
3	15795845	3540	3.1515437530089
3	15795845	3540	3.1516041479593
3	15795845	3540	3.1679227610073
3	15795845	3540	3.1678770883184
3	15795845	3540	3.1588177899516
3	15795845	3540	3.1517762707962
3	15795845	3540	3.1409482388046
3	15795845	3540	3.1449323866306
3	15795845	3540	3.139843772397
3	15795845	3540	3.1548048924732
3	15795845	3540	3.1552017400238
3	15795845	3540	3.1544441015612
3	15795845	3540	3.1530385312879
3	15795845	3540	3.1528243904385
3	15795845	3540	3.2066494095906
3	15795845	3540	3.1575606813179
3	15795845	3540	3.1564725822309
3	15795845	3540	3.1419078880845
3	15795845	3540	3.1468352012011
3	15795845	3540	3.1518396203977
3	15795845	3540	3.1525008782477
3	15795845	3540	3.1475797917114
3	15795845	3540	3.1513041359738
3	15795845	3540	3.1510346256949
3	15795845	3540	3.1525375604877
3	15795845	3540	3.1533335474385
3	15795845	3540	3.2110670176186
3	15795845	3540	3.1574474704169
3	15795845	3540	3.1579388294288
3	15795845	3540	3.1503896238189
3	15795845	3540	3.1575860687444
3	15795845	3540	3.1467309915502
3	15795845	3540	3.1519946763888
3	15795845	3540	3.1579171251193
3	15795845	3540	3.1630416664434
3	15795845	3540	3.1528276846076
3	15795845	3540	3.1601260465126
3	15795845	3540	3.1533484590382
3	15795845	3540	3.1631842272858
3	15795845	3540	3.1674617327818
3	15795845	3540	3.1565280381676
3	15795845	3540	3.1521232454711
3	15795845	3540	3.1576065353877
3	15795845	3540	3.147381853343
3	15795845	3540	3.1524335395386
3	15795845	3540	3.1582266317531
3	15795845	3540	3.1631208684964
3	15795845	3540	3.1583604568635
3	15795845	3540	3.1547593186664
3	15795845	3540	3.1598984040088
3	15795845	3540	3.163141987309
3	15795845	3540	3.1657080263945
3	15795845	3540	3.163267512241
3	15795845	3540	3.1628415702411
3	15795845	3540	3.1576322830174
3	15795845	3540	3.1521373149698
3	15795845	3540	3.1487880272711
3	15795845	3540	3.158465137786
3	15795845	3540	3.1631578279556
3	15795845	3540	3.1596209153067
3	15795845	3540	3.1549485464607
3	15795845	3540	3.1602381792056
3	15795845	3540	3.1631050272019
3	15795845	3540	3.1657740014822
3	15795845	3540	3.1637290636949
3	15795845	3540	3.1634114781337
3	15795845	3540	3.1613960752392
3	15795845	3540	3.1561489355411
3	15795845	3540	3.1526645628919
3	15795845	3540	3.1591780081695
3	15795845	3540	3.1628515863324
3	15795845	3540	3.159782137905
3	15795845	3540	3.1579654059564
3	15795845	3540	3.1588972902059
3	15795845	3540	3.1631103065836
3	15795845	3540	3.1646285824826
3	15795845	3540	3.1659287637816
3	15795845	3540	3.1637996605935
3	15795845	3540	3.1613960752394
3	15795845	3540	3.1557718890903
3	15795845	3540	3.1581786324209
3	15795845	3540	3.1590654826459
3	15795845	3540	3.1630099872309
3	15795845	3540	3.1638873934254
3	15795845	3540	3.1621605970268
3	15795845	3540	3.1593164188274
3	15795845	3540	3.1629466261228
3	15795845	3540	3.165072242893
3	15795845	3540	3.1506411425166
3	15795845	3540	3.1511459385674
3	15795845	3540	3.1630416673288
3	15795845	3540	3.169222294312
3	15795845	3540	3.1583237499196
3	15795845	3540	3.1599495136205
3	15795845	3540	3.1630152683218
3	15795845	3540	3.1633399954752
3	15795845	3540	3.1630973486753
3	15795845	3540	3.1631263816021
3	15795845	3540	3.1630839065955
3	15795845	3540	3.1727989593113
3	15795845	3540	3.1510911431667
3	15795845	3540	3.151393901116
3	15795845	3540	3.1571423537149
3	15795845	3540	3.1691883340115
3	15795845	3540	3.1596906039049
3	15795845	3540	3.1601255325697
3	15795845	3540	3.1631472667199
3	15795845	3540	3.163938557344
3	15795845	3540	3.1636366474017
3	15795845	3540	3.1636965622935
3	15795845	3540	3.1631261474612
3	15795845	3540	3.1735952206023
3	15795845	3540	3.1520130641664
3	15795845	3540	3.151400102917
3	15795845	3540	3.1630627855274
3	15795845	3540	3.2088683191374
3	15795845	3540	3.1696470320506
3	15795845	3540	3.1600870202552
3	15795845	3540	3.1630839062498
3	15795845	3540	3.1630839059551
3	15795845	3540	3.1640619949429
3	15795845	3540	3.2430695900296
4	15795845	3540	35
4	15795845	3540	35
4	15795845	3540	35
4	15795845	3540	35
4	15795845	3540	34
4	15795845	3540	34
4	15795845	3540	34
4	15795845	3540	34
4	15795845	3540	34
4	15795845	3540	35
4	15795845	3540	35
4	15795845	3540	35
4	15795845	3540	35
4	15795845	3540	35
4	15795845	3540	35
4	15795845	3540	35
4	15795845	3540	34
4	15795845	3540	34
4	15795845	3540	35
4	15795845	3540	35
4	15795845	3540	34
4	15795845	3540	34
4	15795845	3540	35
4	15795845	3540	35
4	15795845	3540	35
4	15795845	3540	35
4	15795845	3540	35
4	15795845	3540	35
4	15795845	3540	34
4	15795845	3540	34
4	15795845	3540	34
4	15795845	3540	35
4	15795845	3540	35
4	15795845	3540	35
4	15795845	3540	35
4	15795845	3540	35
4	15795845	3540	35
4	15795845	3540	35
4	15795845	3540	35
4	15795845	3540	34
4	15795845	3540	34
4	15795845	3540	35
4	15795845	3540	35
4	15795845	3540	34
4	15795845	3540	35
4	15795845	3540	35
4	15795845	3540	35
4	15795845	3540	35
4	15795845	3540	35
4	15795845	3540	35
4	15795845	3540	35
4	15795845	3540	35
4	15795845	3540	35
4	15795845	3540	34
4	15795845	3540	35
4	15795845	3540	35
4	15795845	3540	35
4	15795845	3540	35
4	15795845	3540	35
4	15795845	3540	35
4	15795845	3540	35
4	15795845	3540	35
4	15795845	3540	35
4	15795845	3540	35
4	15795845	3540	35
4	15795845	3540	34
4	15795845	3540	35
4	15795845	3540	35
4	15795845	3540	35
4	15795845	3540	35
4	15795845	3540	35
4	15795845	3540	35
4	15795845	3540	35
4	15795845	3540	35
4	15795845	3540	35
4	15795845	3540	35
4	15795845	3540	35
4	15795845	3540	35
4	15795845	3540	34
4	15795845	3540	35
4	15795845	3540	35
4	15795845	3540	35
4	15795845	3540	35
4	15795845	3540	35
4	15795845	3540	35
4	15795845	3540	35
4	15795845	3540	35
4	15795845	3540	35
4	15795845	3540	35
4	15795845	3540	35
4	15795845	3540	35
4	15795845	3540	35
4	15795845	3540	35
4	15795845	3540	35
4	15795845	3540	35
4	15795845	3540	35
4	15795845	3540	35
4	15795845	3540	35
4	15795845	3540	35
4	15795845	3540	35
4	15795845	3540	35
4	15795845	3540	35
4	15795845	3540	35
4	15795845	3540	35
4	15795845	3540	35
4	15795845	3540	35
4	15795845	3540	35
4	15795845	3540	35
4	15795845	3540	35
4	15795845	3540	35
4	15795845	3540	35
4	15795845	3540	35
4	15795845	3540	35
4	15795845	3540	35
4	15795845	3540	35
4	15795845	3540	35
4	15795845	3540	35
4	15795845	3540	35
4	15795845	3540	35
4	15795845	3540	35
4	15795845	3540	35
4	15795845	3540	35
4	15795845	3540	35
4	15795845	3540	35
4	15795845	3540	35
4	15795845	3540	35
4	15795845	3540	35
4	15795845	3540	35
4	15795845	3540	35
4	15795845	3540	35
4	15795845	3540	35
4	15795845	3540	35
4	15795845	3540	35
4	15795845	3540	35
4	15795845	3540	35
4	15795845	3540	35
4	15795845	3540	35
4	15795845	3540	35
4	15795845	3540	35
4	15795845	3540	35
4	15795845	3540	35
4	15795845	3540	35
4	15795845	3540	35
4	15795845	3540	36
